<?xml version="1.0" ?>
<fcd-export>
  <timestep time="0.00">
    <vehicle id="10_1" x="993.86" y="984.59" angle="79.53" type="passenger"/>
    <vehicle id="10_10" x="992.13" y="972.92" angle="93.62" type="passenger"/>
    <vehicle id="10_11" x="1009.48" y="988.66" angle="-10.54" type="passenger"/>
    <vehicle id="10_12" x="974.68" y="998.67" angle="169.37" type="passenger"/>
    <vehicle id="10_13" x="979.66" y="990.67" angle="-11.57" type="passenger"/>
    <vehicle id="10_14" x="996.08" y="977.13" angle="75.34" type="passenger"/>
    <vehicle id="10_15" x="963.47" y="997.16" angle="-9.97" type="passenger"/>
    <vehicle id="10_16" x="994.09" y="966.77" angle="85.43" type="passenger"/>
    <vehicle id="10_17" x="934.19" y="999.69" angle="-11.46" type="passenger"/>
    <vehicle id="10_2" x="994.70" y="997.63" angle="-70.65" type="passenger"/>
    <vehicle id="10_3" x="990.41" y="1003.89" angle="-99.47" type="passenger"/>
    <vehicle id="10_4" x="963.06" y="1002.00" angle="171.77" type="passenger"/>
    <vehicle id="10_5" x="1004.80" y="980.32" angle="-9.85" type="passenger"/>
    <vehicle id="10_6" x="1005.61" y="997.67" angle="177.50" type="passenger"/>
    <vehicle id="10_7" x="1015.16" y="999.67" angle="-147.08" type="passenger"/>
    <vehicle id="10_8" x="985.14" y="1006.77" angle="-131.89" type="passenger"/>
    <vehicle id="10_9" x="1028.12" y="984.99" angle="-10.49" type="passenger"/>
  </timestep>
  <timestep time="0.10">
    <vehicle id="10_1" x="993.88" y="984.71" angle="79.53" type="passenger"/>
    <vehicle id="10_10" x="992.13" y="972.92" angle="93.62" type="passenger"/>
    <vehicle id="10_11" x="1010.47" y="988.47" angle="-10.43" type="passenger"/>
    <vehicle id="10_12" x="973.77" y="998.84" angle="169.31" type="passenger"/>
    <vehicle id="10_13" x="979.79" y="990.64" angle="-11.63" type="passenger"/>
    <vehicle id="10_14" x="996.13" y="977.29" angle="75.23" type="passenger"/>
    <vehicle id="10_15" x="964.46" y="996.99" angle="-10.03" type="passenger"/>
    <vehicle id="10_16" x="994.12" y="967.11" angle="85.14" type="passenger"/>
    <vehicle id="10_17" x="935.33" y="999.46" angle="-11.40" type="passenger"/>
    <vehicle id="10_2" x="994.82" y="997.34" angle="-69.61" type="passenger"/>
    <vehicle id="10_3" x="990.39" y="1003.46" angle="-97.40" type="passenger"/>
    <vehicle id="10_4" x="962.18" y="1002.13" angle="171.72" type="passenger"/>
    <vehicle id="10_5" x="1005.04" y="980.23" angle="-12.03" type="passenger"/>
    <vehicle id="10_6" x="1005.36" y="997.69" angle="176.81" type="passenger"/>
    <vehicle id="10_7" x="1014.82" y="999.50" angle="-148.63" type="passenger"/>
    <vehicle id="10_8" x="984.93" y="1006.60" angle="-132.81" type="passenger"/>
    <vehicle id="10_9" x="1029.09" y="984.81" angle="-10.37" type="passenger"/>
  </timestep>
  <timestep time="0.20">
    <vehicle id="10_1" x="993.90" y="984.84" angle="79.53" type="passenger"/>
    <vehicle id="10_10" x="992.13" y="972.92" angle="93.62" type="passenger"/>
    <vehicle id="10_11" x="1011.46" y="988.29" angle="-10.37" type="passenger"/>
    <vehicle id="10_12" x="972.87" y="999.01" angle="169.31" type="passenger"/>
    <vehicle id="10_13" x="979.89" y="990.62" angle="-11.69" type="passenger"/>
    <vehicle id="10_14" x="996.17" y="977.43" angle="75.06" type="passenger"/>
    <vehicle id="10_15" x="965.41" y="996.82" angle="-10.08" type="passenger"/>
    <vehicle id="10_16" x="994.15" y="967.45" angle="84.80" type="passenger"/>
    <vehicle id="10_17" x="936.47" y="999.23" angle="-11.34" type="passenger"/>
    <vehicle id="10_2" x="994.96" y="997.04" angle="-68.58" type="passenger"/>
    <vehicle id="10_3" x="990.39" y="1003.02" angle="-95.17" type="passenger"/>
    <vehicle id="10_4" x="961.30" y="1002.26" angle="171.60" type="passenger"/>
    <vehicle id="10_5" x="1005.28" y="980.12" angle="-14.21" type="passenger"/>
    <vehicle id="10_6" x="1005.10" y="997.72" angle="176.24" type="passenger"/>
    <vehicle id="10_7" x="1014.48" y="999.33" angle="-150.17" type="passenger"/>
    <vehicle id="10_8" x="984.71" y="1006.42" angle="-133.84" type="passenger"/>
    <vehicle id="10_9" x="1030.05" y="984.63" angle="-10.31" type="passenger"/>
  </timestep>
  <timestep time="0.30">
    <vehicle id="10_1" x="993.93" y="984.95" angle="79.58" type="passenger"/>
    <vehicle id="10_10" x="992.13" y="972.92" angle="93.62" type="passenger"/>
    <vehicle id="10_11" x="1012.44" y="988.12" angle="-10.26" type="passenger"/>
    <vehicle id="10_12" x="971.96" y="999.18" angle="169.25" type="passenger"/>
    <vehicle id="10_13" x="979.97" y="990.60" angle="-11.75" type="passenger"/>
    <vehicle id="10_14" x="996.21" y="977.56" angle="74.94" type="passenger"/>
    <vehicle id="10_15" x="966.33" y="996.65" angle="-10.14" type="passenger"/>
    <vehicle id="10_16" x="994.19" y="967.78" angle="84.51" type="passenger"/>
    <vehicle id="10_17" x="937.61" y="999.00" angle="-11.23" type="passenger"/>
    <vehicle id="10_2" x="995.11" y="996.74" angle="-67.49" type="passenger"/>
    <vehicle id="10_3" x="990.41" y="1002.57" angle="-92.88" type="passenger"/>
    <vehicle id="10_4" x="960.43" y="1002.39" angle="171.49" type="passenger"/>
    <vehicle id="10_5" x="1005.53" y="980.00" angle="-16.39" type="passenger"/>
    <vehicle id="10_6" x="1004.85" y="997.76" angle="175.61" type="passenger"/>
    <vehicle id="10_7" x="1014.14" y="999.18" angle="-151.78" type="passenger"/>
    <vehicle id="10_8" x="984.48" y="1006.24" angle="-134.93" type="passenger"/>
    <vehicle id="10_9" x="1031.02" y="984.46" angle="-10.26" type="passenger"/>
  </timestep>
  <timestep time="0.40">
    <vehicle id="10_1" x="993.95" y="985.07" angle="79.58" type="passenger"/>
    <vehicle id="10_10" x="992.13" y="972.92" angle="93.62" type="passenger"/>
    <vehicle id="10_11" x="1013.41" y="987.95" angle="-10.14" type="passenger"/>
    <vehicle id="10_12" x="971.04" y="999.35" angle="169.25" type="passenger"/>
    <vehicle id="10_13" x="980.03" y="990.58" angle="-11.80" type="passenger"/>
    <vehicle id="10_14" x="996.24" y="977.67" angle="74.89" type="passenger"/>
    <vehicle id="10_15" x="967.22" y="996.50" angle="-10.20" type="passenger"/>
    <vehicle id="10_16" x="994.23" y="968.11" angle="84.17" type="passenger"/>
    <vehicle id="10_17" x="938.75" y="998.78" angle="-11.17" type="passenger"/>
    <vehicle id="10_2" x="995.26" y="996.42" angle="-66.41" type="passenger"/>
    <vehicle id="10_3" x="990.46" y="1002.11" angle="-90.53" type="passenger"/>
    <vehicle id="10_4" x="959.55" y="1002.53" angle="171.43" type="passenger"/>
    <vehicle id="10_5" x="1005.77" y="979.87" angle="-18.56" type="passenger"/>
    <vehicle id="10_6" x="1004.59" y="997.79" angle="175.04" type="passenger"/>
    <vehicle id="10_7" x="1013.80" y="999.04" angle="-153.32" type="passenger"/>
    <vehicle id="10_8" x="984.23" y="1006.05" angle="-136.08" type="passenger"/>
    <vehicle id="10_9" x="1031.99" y="984.29" angle="-10.20" type="passenger"/>
  </timestep>
  <timestep time="0.50">
    <vehicle id="10_1" x="993.97" y="985.18" angle="79.58" type="passenger"/>
    <vehicle id="10_10" x="992.13" y="972.92" angle="93.62" type="passenger"/>
    <vehicle id="10_11" x="1014.38" y="987.77" angle="-10.03" type="passenger"/>
    <vehicle id="10_12" x="970.13" y="999.53" angle="169.25" type="passenger"/>
    <vehicle id="10_13" x="980.07" y="990.57" angle="-11.86" type="passenger"/>
    <vehicle id="10_14" x="996.26" y="977.77" angle="74.83" type="passenger"/>
    <vehicle id="10_15" x="968.07" y="996.34" angle="-10.26" type="passenger"/>
    <vehicle id="10_16" x="994.27" y="968.43" angle="83.82" type="passenger"/>
    <vehicle id="10_17" x="939.88" y="998.56" angle="-11.12" type="passenger"/>
    <vehicle id="10_18" x="1035.95" y="990.98" angle="167.30" type="passenger"/>
    <vehicle id="10_2" x="995.43" y="996.10" angle="-65.26" type="passenger"/>
    <vehicle id="10_3" x="990.52" y="1001.66" angle="-88.06" type="passenger"/>
    <vehicle id="10_4" x="958.68" y="1002.66" angle="171.37" type="passenger"/>
    <vehicle id="10_5" x="1006.02" y="979.73" angle="-20.68" type="passenger"/>
    <vehicle id="10_6" x="1004.33" y="997.83" angle="174.52" type="passenger"/>
    <vehicle id="10_7" x="1013.47" y="998.91" angle="-154.87" type="passenger"/>
    <vehicle id="10_8" x="983.97" y="1005.87" angle="-137.28" type="passenger"/>
    <vehicle id="10_9" x="1032.96" y="984.11" angle="-10.14" type="passenger"/>
  </timestep>
  <timestep time="0.60">
    <vehicle id="10_1" x="993.99" y="985.28" angle="79.58" type="passenger"/>
    <vehicle id="10_10" x="992.13" y="972.92" angle="93.62" type="passenger"/>
    <vehicle id="10_11" x="1015.34" y="987.61" angle="-9.97" type="passenger"/>
    <vehicle id="10_12" x="969.21" y="999.70" angle="169.31" type="passenger"/>
    <vehicle id="10_13" x="980.10" y="990.57" angle="-11.86" type="passenger"/>
    <vehicle id="10_14" x="996.29" y="977.85" angle="74.77" type="passenger"/>
    <vehicle id="10_15" x="968.88" y="996.19" angle="-10.26" type="passenger"/>
    <vehicle id="10_16" x="994.32" y="968.74" angle="83.42" type="passenger"/>
    <vehicle id="10_17" x="941.00" y="998.34" angle="-11.06" type="passenger"/>
    <vehicle id="10_18" x="1035.27" y="991.13" angle="167.30" type="passenger"/>
    <vehicle id="10_2" x="995.61" y="995.77" angle="-64.11" type="passenger"/>
    <vehicle id="10_3" x="990.60" y="1001.20" angle="-85.60" type="passenger"/>
    <vehicle id="10_4" x="957.81" y="1002.79" angle="171.31" type="passenger"/>
    <vehicle id="10_5" x="1006.27" y="979.58" angle="-22.80" type="passenger"/>
    <vehicle id="10_6" x="1004.06" y="997.87" angle="174.01" type="passenger"/>
    <vehicle id="10_7" x="1013.14" y="998.79" angle="-156.47" type="passenger"/>
    <vehicle id="10_8" x="983.69" y="1005.68" angle="-138.54" type="passenger"/>
    <vehicle id="10_9" x="1033.93" y="983.94" angle="-10.14" type="passenger"/>
  </timestep>
  <timestep time="0.70">
    <vehicle id="10_1" x="994.00" y="985.38" angle="79.58" type="passenger"/>
    <vehicle id="10_10" x="992.13" y="972.94" angle="93.56" type="passenger"/>
    <vehicle id="10_11" x="1016.29" y="987.44" angle="-9.85" type="passenger"/>
    <vehicle id="10_12" x="968.29" y="999.87" angle="169.31" type="passenger"/>
    <vehicle id="10_13" x="980.12" y="990.56" angle="-11.92" type="passenger"/>
    <vehicle id="10_14" x="996.31" y="977.92" angle="74.71" type="passenger"/>
    <vehicle id="10_15" x="969.66" y="996.05" angle="-10.26" type="passenger"/>
    <vehicle id="10_16" x="994.36" y="969.04" angle="83.08" type="passenger"/>
    <vehicle id="10_17" x="942.12" y="998.12" angle="-11.00" type="passenger"/>
    <vehicle id="10_18" x="1034.59" y="991.28" angle="167.30" type="passenger"/>
    <vehicle id="10_2" x="995.81" y="995.44" angle="-62.97" type="passenger"/>
    <vehicle id="10_3" x="990.71" y="1000.76" angle="-83.08" type="passenger"/>
    <vehicle id="10_4" x="956.94" y="1002.93" angle="171.26" type="passenger"/>
    <vehicle id="10_5" x="1006.51" y="979.42" angle="-24.92" type="passenger"/>
    <vehicle id="10_6" x="1003.80" y="997.91" angle="173.49" type="passenger"/>
    <vehicle id="10_7" x="1012.81" y="998.69" angle="-158.02" type="passenger"/>
    <vehicle id="10_8" x="983.40" y="1005.50" angle="-139.86" type="passenger"/>
  </timestep>
  <timestep time="0.80">
    <vehicle id="10_1" x="994.02" y="985.47" angle="79.64" type="passenger"/>
    <vehicle id="10_10" x="992.13" y="972.95" angle="93.56" type="passenger"/>
    <vehicle id="10_11" x="1017.23" y="987.28" angle="-9.80" type="passenger"/>
    <vehicle id="10_12" x="967.38" y="1000.05" angle="169.31" type="passenger"/>
    <vehicle id="10_13" x="980.12" y="990.56" angle="-11.92" type="passenger"/>
    <vehicle id="10_14" x="996.33" y="977.98" angle="74.66" type="passenger"/>
    <vehicle id="10_15" x="970.39" y="995.92" angle="-10.26" type="passenger"/>
    <vehicle id="10_16" x="994.40" y="969.33" angle="82.68" type="passenger"/>
    <vehicle id="10_17" x="943.22" y="997.91" angle="-10.94" type="passenger"/>
    <vehicle id="10_18" x="1033.91" y="991.43" angle="167.30" type="passenger"/>
    <vehicle id="10_2" x="996.01" y="995.09" angle="-61.82" type="passenger"/>
    <vehicle id="10_3" x="990.83" y="1000.32" angle="-80.56" type="passenger"/>
    <vehicle id="10_4" x="956.07" y="1003.06" angle="171.20" type="passenger"/>
    <vehicle id="10_5" x="1006.76" y="979.25" angle="-26.99" type="passenger"/>
    <vehicle id="10_6" x="1003.52" y="997.95" angle="173.03" type="passenger"/>
    <vehicle id="10_7" x="1012.48" y="998.59" angle="-159.57" type="passenger"/>
    <vehicle id="10_8" x="983.10" y="1005.31" angle="-141.29" type="passenger"/>
  </timestep>
  <timestep time="0.90">
    <vehicle id="10_1" x="994.03" y="985.56" angle="79.64" type="passenger"/>
    <vehicle id="10_10" x="992.13" y="972.97" angle="93.56" type="passenger"/>
    <vehicle id="10_11" x="1018.16" y="987.12" angle="-9.80" type="passenger"/>
    <vehicle id="10_12" x="966.46" y="1000.22" angle="169.37" type="passenger"/>
    <vehicle id="10_13" x="980.12" y="990.56" angle="-11.92" type="passenger"/>
    <vehicle id="10_14" x="996.34" y="978.03" angle="74.66" type="passenger"/>
    <vehicle id="10_15" x="971.09" y="995.79" angle="-10.26" type="passenger"/>
    <vehicle id="10_16" x="994.45" y="969.60" angle="82.33" type="passenger"/>
    <vehicle id="10_17" x="944.31" y="997.70" angle="-10.94" type="passenger"/>
    <vehicle id="10_18" x="1033.23" y="991.59" angle="167.30" type="passenger"/>
    <vehicle id="10_2" x="996.23" y="994.74" angle="-60.68" type="passenger"/>
    <vehicle id="10_3" x="990.97" y="999.89" angle="-78.09" type="passenger"/>
    <vehicle id="10_4" x="955.21" y="1003.20" angle="171.14" type="passenger"/>
    <vehicle id="10_5" x="1007.00" y="979.07" angle="-28.99" type="passenger"/>
    <vehicle id="10_6" x="1003.25" y="997.99" angle="172.57" type="passenger"/>
    <vehicle id="10_7" x="1012.15" y="998.51" angle="-161.06" type="passenger"/>
    <vehicle id="10_8" x="982.78" y="1005.13" angle="-142.72" type="passenger"/>
  </timestep>
  <timestep time="1.00">
    <vehicle id="10_1" x="994.05" y="985.64" angle="79.64" type="passenger"/>
    <vehicle id="10_10" x="992.13" y="972.99" angle="93.56" type="passenger"/>
    <vehicle id="10_11" x="1019.09" y="986.96" angle="-9.74" type="passenger"/>
    <vehicle id="10_12" x="965.54" y="1000.39" angle="169.37" type="passenger"/>
    <vehicle id="10_13" x="980.12" y="990.56" angle="-11.92" type="passenger"/>
    <vehicle id="10_14" x="996.35" y="978.07" angle="74.60" type="passenger"/>
    <vehicle id="10_15" x="971.74" y="995.67" angle="-10.26" type="passenger"/>
    <vehicle id="10_16" x="994.49" y="969.86" angle="81.93" type="passenger"/>
    <vehicle id="10_17" x="945.38" y="997.49" angle="-10.94" type="passenger"/>
    <vehicle id="10_18" x="1032.56" y="991.74" angle="167.30" type="passenger"/>
    <vehicle id="10_2" x="996.47" y="994.38" angle="-59.64" type="passenger"/>
    <vehicle id="10_3" x="991.13" y="999.47" angle="-75.63" type="passenger"/>
    <vehicle id="10_4" x="954.34" y="1003.34" angle="171.09" type="passenger"/>
    <vehicle id="10_5" x="1007.24" y="978.88" angle="-31.05" type="passenger"/>
    <vehicle id="10_6" x="1002.97" y="998.04" angle="172.17" type="passenger"/>
    <vehicle id="10_7" x="1011.83" y="998.44" angle="-162.61" type="passenger"/>
    <vehicle id="10_8" x="982.45" y="1004.96" angle="-144.21" type="passenger"/>
  </timestep>
  <timestep time="1.10">
    <vehicle id="10_1" x="994.06" y="985.72" angle="79.64" type="passenger"/>
    <vehicle id="10_10" x="992.13" y="973.02" angle="93.51" type="passenger"/>
    <vehicle id="10_11" x="1020.01" y="986.80" angle="-9.74" type="passenger"/>
    <vehicle id="10_12" x="964.63" y="1000.56" angle="169.42" type="passenger"/>
    <vehicle id="10_13" x="980.12" y="990.56" angle="-11.97" type="passenger"/>
    <vehicle id="10_14" x="996.36" y="978.11" angle="74.60" type="passenger"/>
    <vehicle id="10_15" x="972.35" y="995.56" angle="-10.26" type="passenger"/>
    <vehicle id="10_16" x="994.54" y="970.11" angle="81.59" type="passenger"/>
    <vehicle id="10_17" x="946.44" y="997.29" angle="-10.94" type="passenger"/>
    <vehicle id="10_18" x="1031.90" y="991.89" angle="167.30" type="passenger"/>
    <vehicle id="10_2" x="996.71" y="994.02" angle="-58.61" type="passenger"/>
    <vehicle id="10_3" x="991.30" y="999.06" angle="-73.17" type="passenger"/>
    <vehicle id="10_4" x="953.47" y="1003.47" angle="171.03" type="passenger"/>
    <vehicle id="10_5" x="1007.47" y="978.67" angle="-33.00" type="passenger"/>
    <vehicle id="10_6" x="1002.68" y="998.09" angle="171.77" type="passenger"/>
    <vehicle id="10_7" x="1011.51" y="998.37" angle="-164.15" type="passenger"/>
    <vehicle id="10_8" x="982.10" y="1004.78" angle="-145.76" type="passenger"/>
  </timestep>
  <timestep time="1.20">
    <vehicle id="10_1" x="994.08" y="985.79" angle="79.64" type="passenger"/>
    <vehicle id="10_10" x="992.13" y="973.05" angle="93.51" type="passenger"/>
    <vehicle id="10_11" x="1020.91" y="986.65" angle="-9.74" type="passenger"/>
    <vehicle id="10_12" x="963.71" y="1000.73" angle="169.48" type="passenger"/>
    <vehicle id="10_13" x="980.12" y="990.56" angle="-11.97" type="passenger"/>
    <vehicle id="10_14" x="996.37" y="978.14" angle="74.60" type="passenger"/>
    <vehicle id="10_15" x="972.92" y="995.46" angle="-10.26" type="passenger"/>
    <vehicle id="10_16" x="994.58" y="970.34" angle="81.25" type="passenger"/>
    <vehicle id="10_17" x="947.48" y="997.09" angle="-10.94" type="passenger"/>
    <vehicle id="10_18" x="1031.24" y="992.04" angle="167.30" type="passenger"/>
    <vehicle id="10_2" x="996.96" y="993.65" angle="-57.64" type="passenger"/>
    <vehicle id="10_3" x="991.49" y="998.66" angle="-70.82" type="passenger"/>
    <vehicle id="10_4" x="952.61" y="1003.61" angle="170.97" type="passenger"/>
    <vehicle id="10_5" x="1007.70" y="978.47" angle="-35.01" type="passenger"/>
    <vehicle id="10_6" x="1002.38" y="998.14" angle="171.43" type="passenger"/>
    <vehicle id="10_7" x="1011.18" y="998.32" angle="-165.64" type="passenger"/>
    <vehicle id="10_8" x="981.74" y="1004.62" angle="-147.31" type="passenger"/>
  </timestep>
  <timestep time="1.30">
    <vehicle id="10_1" x="994.09" y="985.86" angle="79.70" type="passenger"/>
    <vehicle id="10_10" x="992.13" y="973.08" angle="93.45" type="passenger"/>
    <vehicle id="10_11" x="1021.81" y="986.49" angle="-9.80" type="passenger"/>
    <vehicle id="10_12" x="962.80" y="1000.90" angle="169.48" type="passenger"/>
    <vehicle id="10_13" x="980.12" y="990.56" angle="-11.92" type="passenger"/>
    <vehicle id="10_14" x="996.38" y="978.17" angle="74.54" type="passenger"/>
    <vehicle id="10_15" x="973.46" y="995.37" angle="-10.26" type="passenger"/>
    <vehicle id="10_16" x="994.62" y="970.56" angle="80.90" type="passenger"/>
    <vehicle id="10_17" x="948.50" y="996.89" angle="-11.00" type="passenger"/>
    <vehicle id="10_18" x="1030.59" y="992.18" angle="167.30" type="passenger"/>
    <vehicle id="10_2" x="997.23" y="993.27" angle="-56.72" type="passenger"/>
    <vehicle id="10_3" x="991.69" y="998.28" angle="-68.53" type="passenger"/>
    <vehicle id="10_4" x="951.74" y="1003.75" angle="170.97" type="passenger"/>
    <vehicle id="10_5" x="1007.93" y="978.24" angle="-37.01" type="passenger"/>
    <vehicle id="10_6" x="1002.08" y="998.20" angle="171.09" type="passenger"/>
    <vehicle id="10_7" x="1010.86" y="998.27" angle="-167.13" type="passenger"/>
    <vehicle id="10_8" x="981.37" y="1004.45" angle="-148.91" type="passenger"/>
  </timestep>
  <timestep time="1.40">
    <vehicle id="10_1" x="994.10" y="985.93" angle="79.70" type="passenger"/>
    <vehicle id="10_10" x="992.12" y="973.12" angle="93.45" type="passenger"/>
    <vehicle id="10_11" x="1022.70" y="986.34" angle="-9.80" type="passenger"/>
    <vehicle id="10_12" x="961.89" y="1001.07" angle="169.54" type="passenger"/>
    <vehicle id="10_13" x="980.12" y="990.56" angle="-11.92" type="passenger"/>
    <vehicle id="10_14" x="996.39" y="978.20" angle="74.54" type="passenger"/>
    <vehicle id="10_15" x="973.95" y="995.28" angle="-10.26" type="passenger"/>
    <vehicle id="10_16" x="994.66" y="970.75" angle="80.56" type="passenger"/>
    <vehicle id="10_17" x="949.50" y="996.69" angle="-11.06" type="passenger"/>
    <vehicle id="10_18" x="1029.94" y="992.33" angle="167.30" type="passenger"/>
    <vehicle id="10_2" x="997.50" y="992.89" angle="-55.92" type="passenger"/>
    <vehicle id="10_3" x="991.90" y="997.91" angle="-66.23" type="passenger"/>
    <vehicle id="10_4" x="950.88" y="1003.89" angle="170.91" type="passenger"/>
    <vehicle id="10_5" x="1008.16" y="978.01" angle="-38.96" type="passenger"/>
    <vehicle id="10_6" x="1001.77" y="998.26" angle="170.74" type="passenger"/>
    <vehicle id="10_7" x="1010.53" y="998.23" angle="-168.62" type="passenger"/>
    <vehicle id="10_8" x="980.98" y="1004.29" angle="-150.52" type="passenger"/>
  </timestep>
  <timestep time="1.50">
    <vehicle id="10_1" x="994.11" y="985.99" angle="79.70" type="passenger"/>
    <vehicle id="10_10" x="992.12" y="973.17" angle="93.39" type="passenger"/>
    <vehicle id="10_11" x="1023.58" y="986.18" angle="-9.85" type="passenger"/>
    <vehicle id="10_12" x="960.99" y="1001.23" angle="169.60" type="passenger"/>
    <vehicle id="10_13" x="980.12" y="990.56" angle="-11.92" type="passenger"/>
    <vehicle id="10_14" x="996.39" y="978.21" angle="74.54" type="passenger"/>
    <vehicle id="10_15" x="974.40" y="995.19" angle="-10.26" type="passenger"/>
    <vehicle id="10_16" x="994.70" y="970.93" angle="80.27" type="passenger"/>
    <vehicle id="10_17" x="950.48" y="996.50" angle="-11.17" type="passenger"/>
    <vehicle id="10_18" x="1029.31" y="992.47" angle="167.25" type="passenger"/>
    <vehicle id="10_2" x="997.79" y="992.50" angle="-55.18" type="passenger"/>
    <vehicle id="10_3" x="992.12" y="997.56" angle="-64.06" type="passenger"/>
    <vehicle id="10_4" x="950.01" y="1004.03" angle="170.86" type="passenger"/>
    <vehicle id="10_5" x="1008.38" y="977.77" angle="-40.91" type="passenger"/>
    <vehicle id="10_6" x="1001.44" y="998.32" angle="170.45" type="passenger"/>
    <vehicle id="10_7" x="1010.20" y="998.19" angle="-170.05" type="passenger"/>
    <vehicle id="10_8" x="980.58" y="1004.14" angle="-152.18" type="passenger"/>
  </timestep>
  <timestep time="1.60">
    <vehicle id="10_1" x="994.12" y="986.05" angle="79.70" type="passenger"/>
    <vehicle id="10_10" x="992.12" y="973.22" angle="93.33" type="passenger"/>
    <vehicle id="10_11" x="1024.45" y="986.03" angle="-9.91" type="passenger"/>
    <vehicle id="10_12" x="960.08" y="1001.40" angle="169.60" type="passenger"/>
    <vehicle id="10_13" x="980.12" y="990.56" angle="-11.92" type="passenger"/>
    <vehicle id="10_14" x="996.39" y="978.21" angle="74.54" type="passenger"/>
    <vehicle id="10_15" x="974.82" y="995.12" angle="-10.31" type="passenger"/>
    <vehicle id="10_16" x="994.74" y="971.10" angle="79.98" type="passenger"/>
    <vehicle id="10_17" x="951.43" y="996.31" angle="-11.29" type="passenger"/>
    <vehicle id="10_18" x="1028.68" y="992.62" angle="167.19" type="passenger"/>
    <vehicle id="10_2" x="998.08" y="992.12" angle="-54.49" type="passenger"/>
    <vehicle id="10_3" x="992.36" y="997.21" angle="-61.94" type="passenger"/>
    <vehicle id="10_4" x="949.15" y="1004.17" angle="170.86" type="passenger"/>
    <vehicle id="10_5" x="1008.60" y="977.51" angle="-42.91" type="passenger"/>
    <vehicle id="10_6" x="1001.11" y="998.38" angle="170.23" type="passenger"/>
    <vehicle id="10_7" x="1009.86" y="998.17" angle="-171.54" type="passenger"/>
    <vehicle id="10_8" x="980.16" y="1004.00" angle="-153.84" type="passenger"/>
  </timestep>
  <timestep time="1.70">
    <vehicle id="10_1" x="994.13" y="986.11" angle="79.70" type="passenger"/>
    <vehicle id="10_10" x="992.12" y="973.27" angle="93.28" type="passenger"/>
    <vehicle id="10_11" x="1025.32" y="985.88" angle="-9.97" type="passenger"/>
    <vehicle id="10_12" x="959.18" y="1001.56" angle="169.65" type="passenger"/>
    <vehicle id="10_13" x="980.12" y="990.56" angle="-11.92" type="passenger"/>
    <vehicle id="10_14" x="996.39" y="978.21" angle="74.54" type="passenger"/>
    <vehicle id="10_15" x="975.20" y="995.05" angle="-10.31" type="passenger"/>
    <vehicle id="10_16" x="994.77" y="971.25" angle="79.70" type="passenger"/>
    <vehicle id="10_17" x="952.37" y="996.12" angle="-11.40" type="passenger"/>
    <vehicle id="10_18" x="1028.06" y="992.76" angle="167.13" type="passenger"/>
    <vehicle id="10_2" x="998.38" y="991.72" angle="-53.92" type="passenger"/>
    <vehicle id="10_3" x="992.60" y="996.88" angle="-59.87" type="passenger"/>
    <vehicle id="10_4" x="948.29" y="1004.31" angle="170.86" type="passenger"/>
    <vehicle id="10_5" x="1008.81" y="977.24" angle="-44.92" type="passenger"/>
    <vehicle id="10_6" x="1000.77" y="998.45" angle="170.00" type="passenger"/>
    <vehicle id="10_7" x="1009.52" y="998.15" angle="-172.98" type="passenger"/>
    <vehicle id="10_8" x="979.73" y="1003.87" angle="-155.50" type="passenger"/>
  </timestep>
  <timestep time="1.80">
    <vehicle id="10_1" x="994.14" y="986.17" angle="79.76" type="passenger"/>
    <vehicle id="10_10" x="992.12" y="973.33" angle="93.28" type="passenger"/>
    <vehicle id="10_11" x="1026.18" y="985.73" angle="-10.03" type="passenger"/>
    <vehicle id="10_12" x="958.28" y="1001.73" angle="169.65" type="passenger"/>
    <vehicle id="10_13" x="980.12" y="990.56" angle="-11.92" type="passenger"/>
    <vehicle id="10_14" x="996.39" y="978.21" angle="74.54" type="passenger"/>
    <vehicle id="10_15" x="975.55" y="994.99" angle="-10.31" type="passenger"/>
    <vehicle id="10_16" x="994.80" y="971.38" angle="79.47" type="passenger"/>
    <vehicle id="10_17" x="953.28" y="995.93" angle="-11.52" type="passenger"/>
    <vehicle id="10_18" x="1027.44" y="992.90" angle="167.07" type="passenger"/>
    <vehicle id="10_2" x="998.69" y="991.32" angle="-53.34" type="passenger"/>
    <vehicle id="10_3" x="992.85" y="996.55" angle="-57.93" type="passenger"/>
    <vehicle id="10_4" x="947.43" y="1004.45" angle="170.86" type="passenger"/>
    <vehicle id="10_5" x="1009.02" y="976.96" angle="-46.93" type="passenger"/>
    <vehicle id="10_6" x="1000.41" y="998.51" angle="169.82" type="passenger"/>
    <vehicle id="10_7" x="1009.17" y="998.14" angle="-174.35" type="passenger"/>
    <vehicle id="10_8" x="979.28" y="1003.74" angle="-157.22" type="passenger"/>
  </timestep>
  <timestep time="1.90">
    <vehicle id="10_1" x="994.15" y="986.23" angle="79.76" type="passenger"/>
    <vehicle id="10_10" x="992.12" y="973.39" angle="93.22" type="passenger"/>
    <vehicle id="10_11" x="1027.03" y="985.57" angle="-10.08" type="passenger"/>
    <vehicle id="10_12" x="957.38" y="1001.89" angle="169.71" type="passenger"/>
    <vehicle id="10_13" x="980.12" y="990.56" angle="-11.92" type="passenger"/>
    <vehicle id="10_14" x="996.39" y="978.21" angle="74.54" type="passenger"/>
    <vehicle id="10_15" x="975.87" y="994.93" angle="-10.31" type="passenger"/>
    <vehicle id="10_16" x="994.82" y="971.49" angle="79.24" type="passenger"/>
    <vehicle id="10_17" x="954.16" y="995.75" angle="-11.63" type="passenger"/>
    <vehicle id="10_18" x="1026.84" y="993.04" angle="167.02" type="passenger"/>
    <vehicle id="10_2" x="999.00" y="990.92" angle="-52.88" type="passenger"/>
    <vehicle id="10_3" x="993.11" y="996.23" angle="-56.04" type="passenger"/>
    <vehicle id="10_4" x="946.56" y="1004.58" angle="170.86" type="passenger"/>
    <vehicle id="10_5" x="1009.23" y="976.67" angle="-48.93" type="passenger"/>
    <vehicle id="10_6" x="1000.04" y="998.58" angle="169.71" type="passenger"/>
    <vehicle id="10_7" x="1008.82" y="998.14" angle="-175.73" type="passenger"/>
    <vehicle id="10_8" x="978.82" y="1003.62" angle="-158.88" type="passenger"/>
  </timestep>
  <timestep time="2.00">
    <vehicle id="10_1" x="994.16" y="986.28" angle="79.76" type="passenger"/>
    <vehicle id="10_10" x="992.11" y="973.46" angle="93.11" type="passenger"/>
    <vehicle id="10_11" x="1027.88" y="985.42" angle="-10.14" type="passenger"/>
    <vehicle id="10_12" x="956.49" y="1002.05" angle="169.71" type="passenger"/>
    <vehicle id="10_13" x="980.12" y="990.56" angle="-11.92" type="passenger"/>
    <vehicle id="10_14" x="996.39" y="978.21" angle="74.54" type="passenger"/>
    <vehicle id="10_15" x="976.16" y="994.87" angle="-10.31" type="passenger"/>
    <vehicle id="10_16" x="994.85" y="971.59" angle="79.07" type="passenger"/>
    <vehicle id="10_17" x="955.02" y="995.57" angle="-11.75" type="passenger"/>
    <vehicle id="10_18" x="1026.24" y="993.18" angle="166.90" type="passenger"/>
    <vehicle id="10_2" x="999.32" y="990.52" angle="-52.43" type="passenger"/>
    <vehicle id="10_3" x="993.38" y="995.92" angle="-54.26" type="passenger"/>
    <vehicle id="10_4" x="945.70" y="1004.72" angle="170.86" type="passenger"/>
    <vehicle id="10_5" x="1009.43" y="976.36" angle="-50.99" type="passenger"/>
    <vehicle id="10_6" x="999.66" y="998.66" angle="169.60" type="passenger"/>
    <vehicle id="10_7" x="1008.45" y="998.14" angle="-177.10" type="passenger"/>
    <vehicle id="10_8" x="978.34" y="1003.50" angle="-160.49" type="passenger"/>
  </timestep>
  <timestep time="2.10">
    <vehicle id="10_1" x="994.17" y="986.34" angle="79.76" type="passenger"/>
    <vehicle id="10_10" x="992.11" y="973.53" angle="93.05" type="passenger"/>
    <vehicle id="10_11" x="1028.72" y="985.27" angle="-10.20" type="passenger"/>
    <vehicle id="10_12" x="955.60" y="1002.21" angle="169.77" type="passenger"/>
    <vehicle id="10_13" x="980.12" y="990.56" angle="-11.92" type="passenger"/>