<?xml version="1.0" ?>
<fcd-export>
  <timestep time="0.00">
    <vehicle id="10_1" x="993.86" y="984.59" z="0.75" angle="79.53" speed="1.27" type="passenger" length="4.50" width="1.80" height="1.50"/>
    <vehicle id="10_10" x="992.13" y="972.92" z="0.75" angle="93.62" speed="0.00" type="passenger" length="4.50" width="1.80" height="1.50"/>
    <vehicle id="10_11" x="1009.48" y="988.66" z="0.75" angle="-10.54" speed="10.10" type="passenger" length="4.50" width="1.80" height="1.50"/>
    <vehicle id="10_12" x="974.68" y="998.67" z="0.75" angle="169.37" speed="9.19" type="passenger" length="4.50" width="1.80" height="1.50"/>
    <vehicle id="10_13" x="979.66" y="990.67" z="0.75" angle="-11.57" speed="1.31" type="passenger" length="4.50" width="1.80" height="1.50"/>
    <vehicle id="10_14" x="996.08" y="977.13" z="0.75" angle="75.34" speed="1.67" type="passenger" length="4.50" width="1.80" height="1.50"/>
    <vehicle id="10_15" x="963.47" y="997.16" z="0.75" angle="-9.97" speed="9.98" type="passenger" length="4.50" width="1.80" height="1.50"/>
    <vehicle id="10_16" x="994.09" y="966.77" z="0.75" angle="85.43" speed="3.45" type="passenger" length="4.50" width="1.80" height="1.50"/>
    <vehicle id="10_17" x="934.19" y="999.69" z="0.75" angle="-11.46" speed="11.63" type="passenger" length="4.50" width="1.80" height="1.50"/>
    <vehicle id="10_2" x="994.70" y="997.63" z="0.75" angle="-70.65" speed="3.15" type="passenger" length="4.50" width="1.80" height="1.50"/>
    <vehicle id="10_3" x="990.41" y="1003.89" z="0.75" angle="-99.47" speed="4.33" type="passenger" length="4.50" width="1.80" height="1.50"/>
    <vehicle id="10_4" x="963.06" y="1002.00" z="0.75" angle="171.77" speed="8.88" type="passenger" length="4.50" width="1.80" height="1.50"/>
    <vehicle id="10_5" x="1004.80" y="980.32" z="0.75" angle="-9.85" speed="2.59" type="passenger" length="4.50" width="1.80" height="1.50"/>
    <vehicle id="10_6" x="1005.61" y="997.67" z="0.75" angle="177.50" speed="2.54" type="passenger" length="4.50" width="1.80" height="1.50"/>
    <vehicle id="10_7" x="1015.16" y="999.67" z="0.75" angle="-147.08" speed="3.84" type="passenger" length="4.50" width="1.80" height="1.50"/>
    <vehicle id="10_8" x="985.14" y="1006.77" z="0.75" angle="-131.89" speed="2.72" type="passenger" length="4.50" width="1.80" height="1.50"/>
    <vehicle id="10_9" x="1028.12" y="984.99" z="0.75" angle="-10.49" speed="9.82" type="passenger" length="4.50" width="1.80" height="1.50"/>
  </timestep>
  <timestep time="0.10">
    <vehicle id="10_1" x="993.88" y="984.71" z="0.75" angle="79.53" speed="1.24" type="passenger" length="4.50" width="1.80" height="1.50"/>
    <vehicle id="10_10" x="992.13" y="972.92" z="0.75" angle="93.62" speed="0.00" type="passenger" length="4.50" width="1.80" height="1.50"/>
    <vehicle id="10_11" x="1010.47" y="988.47" z="0.75" angle="-10.43" speed="10.03" type="passenger" length="4.50" width="1.80" height="1.50"/>
    <vehicle id="10_12" x="973.77" y="998.84" z="0.75" angle="169.31" speed="9.23" type="passenger" length="4.50" width="1.80" height="1.50"/>
    <vehicle id="10_13" x="979.79" y="990.64" z="0.75" angle="-11.63" speed="1.05" type="passenger" length="4.50" width="1.80" height="1.50"/>
    <vehicle id="10_14" x="996.13" y="977.29" z="0.75" angle="75.23" speed="1.50" type="passenger" length="4.50" width="1.80" height="1.50"/>
    <vehicle id="10_15" x="964.46" y="996.99" z="0.75" angle="-10.03" speed="9.68" type="passenger" length="4.50" width="1.80" height="1.50"/>
    <vehicle id="10_16" x="994.12" y="967.11" z="0.75" angle="85.14" speed="3.41" type="passenger" length="4.50" width="1.80" height="1.50"/>
    <vehicle id="10_17" x="935.33" y="999.46" z="0.75" angle="-11.40" speed="11.63" type="passenger" length="4.50" width="1.80" height="1.50"/>
    <vehicle id="10_2" x="994.82" y="997.34" z="0.75" angle="-69.61" speed="3.26" type="passenger" length="4.50" width="1.80" height="1.50"/>
    <vehicle id="10_3" x="990.39" y="1003.46" z="0.75" angle="-97.40" speed="4.42" type="passenger" length="4.50" width="1.80" height="1.50"/>
    <vehicle id="10_4" x="962.18" y="1002.13" z="0.75" angle="171.72" speed="8.87" type="passenger" length="4.50" width="1.80" height="1.50"/>
    <vehicle id="10_5" x="1005.04" y="980.23" z="0.75" angle="-12.03" speed="2.66" type="passenger" length="4.50" width="1.80" height="1.50"/>
    <vehicle id="10_6" x="1005.36" y="997.69" z="0.75" angle="176.81" speed="2.56" type="passenger" length="4.50" width="1.80" height="1.50"/>
    <vehicle id="10_7" x="1014.82" y="999.50" z="0.75" angle="-148.63" speed="3.79" type="passenger" length="4.50" width="1.80" height="1.50"/>
    <vehicle id="10_8" x="984.93" y="1006.60" z="0.75" angle="-132.81" speed="2.84" type="passenger" length="4.50" width="1.80" height="1.50"/>
    <vehicle id="10_9" x="1029.09" y="984.81" z="0.75" angle="-10.37" speed="9.83" type="passenger" length="4.50" width="1.80" height="1.50"/>
  </timestep>
  <timestep time="0.20">
    <vehicle id="10_1" x="993.90" y="984.84" z="0.75" angle="79.53" speed="1.21" type="passenger" length="4.50" width="1.80" height="1.50"/>
    <vehicle id="10_10" x="992.13" y="972.92" z="0.75" angle="93.62" speed="0.00" type="passenger" length="4.50" width="1.80" height="1.50"/>
    <vehicle id="10_11" x="1011.46" y="988.29" z="0.75" angle="-10.37" speed="9.96" type="passenger" length="4.50" width="1.80" height="1.50"/>
    <vehicle id="10_12" x="972.87" y="999.01" z="0.75" angle="169.31" speed="9.27" type="passenger" length="4.50" width="1.80" height="1.50"/>
    <vehicle id="10_13" x="979.89" y="990.62" z="0.75" angle="-11.69" speed="0.81" type="passenger" length="4.50" width="1.80" height="1.50"/>
    <vehicle id="10_14" x="996.17" y="977.43" z="0.75" angle="75.06" speed="1.33" type="passenger" length="4.50" width="1.80" height="1.50"/>
    <vehicle id="10_15" x="965.41" y="996.82" z="0.75" angle="-10.08" speed="9.36" type="passenger" length="4.50" width="1.80" height="1.50"/>
    <vehicle id="10_16" x="994.15" y="967.45" z="0.75" angle="84.80" speed="3.35" type="passenger" length="4.50" width="1.80" height="1.50"/>
    <vehicle id="10_17" x="936.47" y="999.23" z="0.75" angle="-11.34" speed="11.62" type="passenger" length="4.50" width="1.80" height="1.50"/>
    <vehicle id="10_2" x="994.96" y="997.04" z="0.75" angle="-68.58" speed="3.37" type="passenger" length="4.50" width="1.80" height="1.50"/>
    <vehicle id="10_3" x="990.39" y="1003.02" z="0.75" angle="-95.17" speed="4.50" type="passenger" length="4.50" width="1.80" height="1.50"/>
    <vehicle id="10_4" x="961.30" y="1002.26" z="0.75" angle="171.60" speed="8.86" type="passenger" length="4.50" width="1.80" height="1.50"/>
    <vehicle id="10_5" x="1005.28" y="980.12" z="0.75" angle="-14.21" speed="2.73" type="passenger" length="4.50" width="1.80" height="1.50"/>
    <vehicle id="10_6" x="1005.10" y="997.72" z="0.75" angle="176.24" speed="2.58" type="passenger" length="4.50" width="1.80" height="1.50"/>
    <vehicle id="10_7" x="1014.48" y="999.33" z="0.75" angle="-150.17" speed="3.73" type="passenger" length="4.50" width="1.80" height="1.50"/>
    <vehicle id="10_8" x="984.71" y="1006.42" z="0.75" angle="-133.84" speed="2.97" type="passenger" length="4.50" width="1.80" height="1.50"/>
    <vehicle id="10_9" x="1030.05" y="984.63" z="0.75" angle="-10.31" speed="9.84" type="passenger" length="4.50" width="1.80" height="1.50"/>
  </timestep>
  <timestep time="0.30">
    <vehicle id="10_1" x="993.93" y="984.95" z="0.75" angle="79.58" speed="1.16" type="passenger" length="4.50" width="1.80" height="1.50"/>
    <vehicle id="10_10" x="992.13" y="972.92" z="0.75" angle="93.62" speed="0.00" type="passenger" length="4.50" width="1.80" height="1.50"/>
    <vehicle id="10_11" x="1012.44" y="988.12" z="0.75" angle="-10.26" speed="9.89" type="passenger" length="4.50" width="1.80" height="1.50"/>
    <vehicle id="10_12" x="971.96" y="999.18" z="0.75" angle="169.25" speed="9.30" type="passenger" length="4.50" width="1.80" height="1.50"/>
    <vehicle id="10_13" x="979.97" y="990.60" z="0.75" angle="-11.75" speed="0.60" type="passenger" length="4.50" width="1.80" height="1.50"/>
    <vehicle id="10_14" x="996.21" y="977.56" z="0.75" angle="74.94" speed="1.16" type="passenger" length="4.50" width="1.80" height="1.50"/>
    <vehicle id="10_15" x="966.33" y="996.65" z="0.75" angle="-10.14" speed="9.02" type="passenger" length="4.50" width="1.80" height="1.50"/>
    <vehicle id="10_16" x="994.19" y="967.78" z="0.75" angle="84.51" speed="3.29" type="passenger" length="4.50" width="1.80" height="1.50"/>
    <vehicle id="10_17" x="937.61" y="999.00" z="0.75" angle="-11.23" speed="11.58" type="passenger" length="4.50" width="1.80" height="1.50"/>
    <vehicle id="10_2" x="995.11" y="996.74" z="0.75" angle="-67.49" speed="3.50" type="passenger" length="4.50" width="1.80" height="1.50"/>
    <vehicle id="10_3" x="990.41" y="1002.57" z="0.75" angle="-92.88" speed="4.55" type="passenger" length="4.50" width="1.80" height="1.50"/>
    <vehicle id="10_4" x="960.43" y="1002.39" z="0.75" angle="171.49" speed="8.84" type="passenger" length="4.50" width="1.80" height="1.50"/>
    <vehicle id="10_5" x="1005.53" y="980.00" z="0.75" angle="-16.39" speed="2.78" type="passenger" length="4.50" width="1.80" height="1.50"/>
    <vehicle id="10_6" x="1004.85" y="997.76" z="0.75" angle="175.61" speed="2.60" type="passenger" length="4.50" width="1.80" height="1.50"/>
    <vehicle id="10_7" x="1014.14" y="999.18" z="0.75" angle="-151.78" speed="3.66" type="passenger" length="4.50" width="1.80" height="1.50"/>
    <vehicle id="10_8" x="984.48" y="1006.24" z="0.75" angle="-134.93" speed="3.09" type="passenger" length="4.50" width="1.80" height="1.50"/>
    <vehicle id="10_9" x="1031.02" y="984.46" z="0.75" angle="-10.26" speed="9.84" type="passenger" length="4.50" width="1.80" height="1.50"/>
  </timestep>
  <timestep time="0.40">
    <vehicle id="10_1" x="993.95" y="985.07" z="0.75" angle="79.58" speed="1.11" type="passenger" length="4.50" width="1.80" height="1.50"/>
    <vehicle id="10_10" x="992.13" y="972.92" z="0.75" angle="93.62" speed="0.00" type="passenger" length="4.50" width="1.80" height="1.50"/>
    <vehicle id="10_11" x="1013.41" y="987.95" z="0.75" angle="-10.14" speed="9.81" type="passenger" length="4.50" width="1.80" height="1.50"/>
    <vehicle id="10_12" x="971.04" y="999.35" z="0.75" angle="169.25" speed="9.32" type="passenger" length="4.50" width="1.80" height="1.50"/>
    <vehicle id="10_13" x="980.03" y="990.58" z="0.75" angle="-11.80" speed="0.42" type="passenger" length="4.50" width="1.80" height="1.50"/>
    <vehicle id="10_14" x="996.24" y="977.67" z="0.75" angle="74.89" speed="1.01" type="passenger" length="4.50" width="1.80" height="1.50"/>
    <vehicle id="10_15" x="967.22" y="996.50" z="0.75" angle="-10.20" speed="8.65" type="passenger" length="4.50" width="1.80" height="1.50"/>
    <vehicle id="10_16" x="994.23" y="968.11" z="0.75" angle="84.17" speed="3.21" type="passenger" length="4.50" width="1.80" height="1.50"/>
    <vehicle id="10_17" x="938.75" y="998.78" z="0.75" angle="-11.17" speed="11.53" type="passenger" length="4.50" width="1.80" height="1.50"/>
    <vehicle id="10_2" x="995.26" y="996.42" z="0.75" angle="-66.41" speed="3.62" type="passenger" length="4.50" width="1.80" height="1.50"/>
    <vehicle id="10_3" x="990.46" y="1002.11" z="0.75" angle="-90.53" speed="4.58" type="passenger" length="4.50" width="1.80" height="1.50"/>
    <vehicle id="10_4" x="959.55" y="1002.53" z="0.75" angle="171.43" speed="8.83" type="passenger" length="4.50" width="1.80" height="1.50"/>
    <vehicle id="10_5" x="1005.77" y="979.87" z="0.75" angle="-18.56" speed="2.83" type="passenger" length="4.50" width="1.80" height="1.50"/>
    <vehicle id="10_6" x="1004.59" y="997.79" z="0.75" angle="175.04" speed="2.63" type="passenger" length="4.50" width="1.80" height="1.50"/>
    <vehicle id="10_7" x="1013.80" y="999.04" z="0.75" angle="-153.32" speed="3.59" type="passenger" length="4.50" width="1.80" height="1.50"/>
    <vehicle id="10_8" x="984.23" y="1006.05" z="0.75" angle="-136.08" speed="3.21" type="passenger" length="4.50" width="1.80" height="1.50"/>
    <vehicle id="10_9" x="1031.99" y="984.29" z="0.75" angle="-10.20" speed="9.84" type="passenger" length="4.50" width="1.80" height="1.50"/>
  </timestep>
  <timestep time="0.50">
    <vehicle id="10_1" x="993.97" y="985.18" z="0.75" angle="79.58" speed="1.06" type="passenger" length="4.50" width="1.80" height="1.50"/>
    <vehicle id="10_10" x="992.13" y="972.92" z="0.75" angle="93.62" speed="0.00" type="passenger" length="4.50" width="1.80" height="1.50"/>
    <vehicle id="10_11" x="1014.38" y="987.77" z="0.75" angle="-10.03" speed="9.73" type="passenger" length="4.50" width="1.80" height="1.50"/>
    <vehicle id="10_12" x="970.13" y="999.53" z="0.75" angle="169.25" speed="9.33" type="passenger" length="4.50" width="1.80" height="1.50"/>
    <vehicle id="10_13" x="980.07" y="990.57" z="0.75" angle="-11.86" speed="0.27" type="passenger" length="4.50" width="1.80" height="1.50"/>
    <vehicle id="10_14" x="996.26" y="977.77" z="0.75" angle="74.83" speed="0.86" type="passenger" length="4.50" width="1.80" height="1.50"/>
    <vehicle id="10_15" x="968.07" y="996.34" z="0.75" angle="-10.26" speed="8.27" type="passenger" length="4.50" width="1.80" height="1.50"/>
    <vehicle id="10_16" x="994.27" y="968.43" z="0.75" angle="83.82" speed="3.12" type="passenger" length="4.50" width="1.80" height="1.50"/>
    <vehicle id="10_17" x="939.88" y="998.56" z="0.75" angle="-11.12" speed="11.45" type="passenger" length="4.50" width="1.80" height="1.50"/>
    <vehicle id="10_18" x="1035.95" y="990.98" z="0.75" angle="167.30" speed="6.99" type="passenger" length="4.50" width="1.80" height="1.50"/>
    <vehicle id="10_2" x="995.43" y="996.10" z="0.75" angle="-65.26" speed="3.75" type="passenger" length="4.50" width="1.80" height="1.50"/>
    <vehicle id="10_3" x="990.52" y="1001.66" z="0.75" angle="-88.06" speed="4.60" type="passenger" length="4.50" width="1.80" height="1.50"/>
    <vehicle id="10_4" x="958.68" y="1002.66" z="0.75" angle="171.37" speed="8.81" type="passenger" length="4.50" width="1.80" height="1.50"/>
    <vehicle id="10_5" x="1006.02" y="979.73" z="0.75" angle="-20.68" speed="2.88" type="passenger" length="4.50" width="1.80" height="1.50"/>
    <vehicle id="10_6" x="1004.33" y="997.83" z="0.75" angle="174.52" speed="2.66" type="passenger" length="4.50" width="1.80" height="1.50"/>
    <vehicle id="10_7" x="1013.47" y="998.91" z="0.75" angle="-154.87" speed="3.52" type="passenger" length="4.50" width="1.80" height="1.50"/>
    <vehicle id="10_8" x="983.97" y="1005.87" z="0.75" angle="-137.28" speed="3.32" type="passenger" length="4.50" width="1.80" height="1.50"/>
    <vehicle id="10_9" x="1032.96" y="984.11" z="0.75" angle="-10.14" speed="9.85" type="passenger" length="4.50" width="1.80" height="1.50"/>
  </timestep>
  <timestep time="0.60">
    <vehicle id="10_1" x="993.99" y="985.28" z="0.75" angle="79.58" speed="1.00" type="passenger" length="4.50" width="1.80" height="1.50"/>
    <vehicle id="10_10" x="992.13" y="972.92" z="0.75" angle="93.62" speed="0.00" type="passenger" length="4.50" width="1.80" height="1.50"/>
    <vehicle id="10_11" x="1015.34" y="987.61" z="0.75" angle="-9.97" speed="9.65" type="passenger" length="4.50" width="1.80" height="1.50"/>
    <vehicle id="10_12" x="969.21" y="999.70" z="0.75" angle="169.31" speed="9.34" type="passenger" length="4.50" width="1.80" height="1.50"/>
    <vehicle id="10_13" x="980.10" y="990.57" z="0.75" angle="-11.86" speed="0.15" type="passenger" length="4.50" width="1.80" height="1.50"/>
    <vehicle id="10_14" x="996.29" y="977.85" z="0.75" angle="74.77" speed="0.72" type="passenger" length="4.50" width="1.80" height="1.50"/>
    <vehicle id="10_15" x="968.88" y="996.19" z="0.75" angle="-10.26" speed="7.88" type="passenger" length="4.50" width="1.80" height="1.50"/>
    <vehicle id="10_16" x="994.32" y="968.74" z="0.75" angle="83.42" speed="3.02" type="passenger" length="4.50" width="1.80" height="1.50"/>
    <vehicle id="10_17" x="941.00" y="998.34" z="0.75" angle="-11.06" speed="11.35" type="passenger" length="4.50" width="1.80" height="1.50"/>
    <vehicle id="10_18" x="1035.27" y="991.13" z="0.75" angle="167.30" speed="6.99" type="passenger" length="4.50" width="1.80" height="1.50"/>
    <vehicle id="10_2" x="995.61" y="995.77" z="0.75" angle="-64.11" speed="3.89" type="passenger" length="4.50" width="1.80" height="1.50"/>
    <vehicle id="10_3" x="990.60" y="1001.20" z="0.75" angle="-85.60" speed="4.59" type="passenger" length="4.50" width="1.80" height="1.50"/>
    <vehicle id="10_4" x="957.81" y="1002.79" z="0.75" angle="171.31" speed="8.80" type="passenger" length="4.50" width="1.80" height="1.50"/>
    <vehicle id="10_5" x="1006.27" y="979.58" z="0.75" angle="-22.80" speed="2.92" type="passenger" length="4.50" width="1.80" height="1.50"/>
    <vehicle id="10_6" x="1004.06" y="997.87" z="0.75" angle="174.01" speed="2.70" type="passenger" length="4.50" width="1.80" height="1.50"/>
    <vehicle id="10_7" x="1013.14" y="998.79" z="0.75" angle="-156.47" speed="3.46" type="passenger" length="4.50" width="1.80" height="1.50"/>
    <vehicle id="10_8" x="983.69" y="1005.68" z="0.75" angle="-138.54" speed="3.44" type="passenger" length="4.50" width="1.80" height="1.50"/>
    <vehicle id="10_9" x="1033.93" y="983.94" z="0.75" angle="-10.14" speed="9.85" type="passenger" length="4.50" width="1.80" height="1.50"/>
  </timestep>
  <timestep time="0.70">
    <vehicle id="10_1" x="994.00" y="985.38" z="0.75" angle="79.58" speed="0.94" type="passenger" length="4.50" width="1.80" height="1.50"/>
    <vehicle id="10_10" x="992.13" y="972.94" z="0.75" angle="93.56" speed="0.13" type="passenger" length="4.50" width="1.80" height="1.50"/>
    <vehicle id="10_11" x="1016.29" y="987.44" z="0.75" angle="-9.85" speed="9.56" type="passenger" length="4.50" width="1.80" height="1.50"/>
    <vehicle id="10_12" x="968.29" y="999.87" z="0.75" angle="169.31" speed="9.34" type="passenger" length="4.50" width="1.80" height="1.50"/>
    <vehicle id="10_13" x="980.12" y="990.56" z="0.75" angle="-11.92" speed="0.00" type="passenger" length="4.50" width="1.80" height="1.50"/>
    <vehicle id="10_14" x="996.31" y="977.92" z="0.75" angle="74.71" speed="0.61" type="passenger" length="4.50" width="1.80" height="1.50"/>
    <vehicle id="10_15" x="969.66" y="996.05" z="0.75" angle="-10.26" speed="7.47" type="passenger" length="4.50" width="1.80" height="1.50"/>
    <vehicle id="10_16" x="994.36" y="969.04" z="0.75" angle="83.08" speed="2.91" type="passenger" length="4.50" width="1.80" height="1.50"/>
    <vehicle id="10_17" x="942.12" y="998.12" z="0.75" angle="-11.00" speed="11.23" type="passenger" length="4.50" width="1.80" height="1.50"/>
    <vehicle id="10_18" x="1034.59" y="991.28" z="0.75" angle="167.30" speed="6.97" type="passenger" length="4.50" width="1.80" height="1.50"/>
    <vehicle id="10_2" x="995.81" y="995.44" z="0.75" angle="-62.97" speed="4.02" type="passenger" length="4.50" width="1.80" height="1.50"/>
    <vehicle id="10_3" x="990.71" y="1000.76" z="0.75" angle="-83.08" speed="4.57" type="passenger" length="4.50" width="1.80" height="1.50"/>
    <vehicle id="10_4" x="956.94" y="1002.93" z="0.75" angle="171.26" speed="8.79" type="passenger" length="4.50" width="1.80" height="1.50"/>
    <vehicle id="10_5" x="1006.51" y="979.42" z="0.75" angle="-24.92" speed="2.96" type="passenger" length="4.50" width="1.80" height="1.50"/>
    <vehicle id="10_6" x="1003.80" y="997.91" z="0.75" angle="173.49" speed="2.75" type="passenger" length="4.50" width="1.80" height="1.50"/>
    <vehicle id="10_7" x="1012.81" y="998.69" z="0.75" angle="-158.02" speed="3.40" type="passenger" length="4.50" width="1.80" height="1.50"/>
    <vehicle id="10_8" x="983.40" y="1005.50" z="0.75" angle="-139.86" speed="3.55" type="passenger" length="4.50" width="1.80" height="1.50"/>
  </timestep>
  <timestep time="0.80">
    <vehicle id="10_1" x="994.02" y="985.47" z="0.75" angle="79.64" speed="0.89" type="passenger" length="4.50" width="1.80" height="1.50"/>
    <vehicle id="10_10" x="992.13" y="972.95" z="0.75" angle="93.56" speed="0.17" type="passenger" length="4.50" width="1.80" height="1.50"/>
    <vehicle id="10_11" x="1017.23" y="987.28" z="0.75" angle="-9.80" speed="9.48" type="passenger" length="4.50" width="1.80" height="1.50"/>
    <vehicle id="10_12" x="967.38" y="1000.05" z="0.75" angle="169.31" speed="9.33" type="passenger" length="4.50" width="1.80" height="1.50"/>
    <vehicle id="10_13" x="980.12" y="990.56" z="0.75" angle="-11.92" speed="0.00" type="passenger" length="4.50" width="1.80" height="1.50"/>
    <vehicle id="10_14" x="996.33" y="977.98" z="0.75" angle="74.66" speed="0.51" type="passenger" length="4.50" width="1.80" height="1.50"/>
    <vehicle id="10_15" x="970.39" y="995.92" z="0.75" angle="-10.26" speed="7.06" type="passenger" length="4.50" width="1.80" height="1.50"/>
    <vehicle id="10_16" x="994.40" y="969.33" z="0.75" angle="82.68" speed="2.79" type="passenger" length="4.50" width="1.80" height="1.50"/>
    <vehicle id="10_17" x="943.22" y="997.91" z="0.75" angle="-10.94" speed="11.10" type="passenger" length="4.50" width="1.80" height="1.50"/>
    <vehicle id="10_18" x="1033.91" y="991.43" z="0.75" angle="167.30" speed="6.93" type="passenger" length="4.50" width="1.80" height="1.50"/>
    <vehicle id="10_2" x="996.01" y="995.09" z="0.75" angle="-61.82" speed="4.14" type="passenger" length="4.50" width="1.80" height="1.50"/>
    <vehicle id="10_3" x="990.83" y="1000.32" z="0.75" angle="-80.56" speed="4.53" type="passenger" length="4.50" width="1.80" height="1.50"/>
    <vehicle id="10_4" x="956.07" y="1003.06" z="0.75" angle="171.20" speed="8.78" type="passenger" length="4.50" width="1.80" height="1.50"/>
    <vehicle id="10_5" x="1006.76" y="979.25" z="0.75" angle="-26.99" speed="3.00" type="passenger" length="4.50" width="1.80" height="1.50"/>
    <vehicle id="10_6" x="1003.52" y="997.95" z="0.75" angle="173.03" speed="2.80" type="passenger" length="4.50" width="1.80" height="1.50"/>
    <vehicle id="10_7" x="1012.48" y="998.59" z="0.75" angle="-159.57" speed="3.36" type="passenger" length="4.50" width="1.80" height="1.50"/>
    <vehicle id="10_8" x="983.10" y="1005.31" z="0.75" angle="-141.29" speed="3.66" type="passenger" length="4.50" width="1.80" height="1.50"/>
  </timestep>
  <timestep time="0.90">
    <vehicle id="10_1" x="994.03" y="985.56" z="0.75" angle="79.64" speed="0.83" type="passenger" length="4.50" width="1.80" height="1.50"/>
    <vehicle id="10_10" x="992.13" y="972.97" z="0.75" angle="93.56" speed="0.21" type="passenger" length="4.50" width="1.80" height="1.50"/>
    <vehicle id="10_11" x="1018.16" y="987.12" z="0.75" angle="-9.80" speed="9.39" type="passenger" length="4.50" width="1.80" height="1.50"/>
    <vehicle id="10_12" x="966.46" y="1000.22" z="0.75" angle="169.37" speed="9.32" type="passenger" length="4.50" width="1.80" height="1.50"/>
    <vehicle id="10_13" x="980.12" y="990.56" z="0.75" angle="-11.92" speed="0.00" type="passenger" length="4.50" width="1.80" height="1.50"/>
    <vehicle id="10_14" x="996.34" y="978.03" z="0.75" angle="74.66" speed="0.44" type="passenger" length="4.50" width="1.80" height="1.50"/>
    <vehicle id="10_15" x="971.09" y="995.79" z="0.75" angle="-10.26" speed="6.64" type="passenger" length="4.50" width="1.80" height="1.50"/>
    <vehicle id="10_16" x="994.45" y="969.60" z="0.75" angle="82.33" speed="2.65" type="passenger" length="4.50" width="1.80" height="1.50"/>
    <vehicle id="10_17" x="944.31" y="997.70" z="0.75" angle="-10.94" speed="10.94" type="passenger" length="4.50" width="1.80" height="1.50"/>
    <vehicle id="10_18" x="1033.23" y="991.59" z="0.75" angle="167.30" speed="6.89" type="passenger" length="4.50" width="1.80" height="1.50"/>
    <vehicle id="10_2" x="996.23" y="994.74" z="0.75" angle="-60.68" speed="4.26" type="passenger" length="4.50" width="1.80" height="1.50"/>
    <vehicle id="10_3" x="990.97" y="999.89" z="0.75" angle="-78.09" speed="4.48" type="passenger" length="4.50" width="1.80" height="1.50"/>
    <vehicle id="10_4" x="955.21" y="1003.20" z="0.75" angle="171.14" speed="8.77" type="passenger" length="4.50" width="1.80" height="1.50"/>
    <vehicle id="10_5" x="1007.00" y="979.07" z="0.75" angle="-28.99" speed="3.04" type="passenger" length="4.50" width="1.80" height="1.50"/>
    <vehicle id="10_6" x="1003.25" y="997.99" z="0.75" angle="172.57" speed="2.86" type="passenger" length="4.50" width="1.80" height="1.50"/>
    <vehicle id="10_7" x="1012.15" y="998.51" z="0.75" angle="-161.06" speed="3.32" type="passenger" length="4.50" width="1.80" height="1.50"/>
    <vehicle id="10_8" x="982.78" y="1005.13" z="0.75" angle="-142.72" speed="3.76" type="passenger" length="4.50" width="1.80" height="1.50"/>
  </timestep>
  <timestep time="1.00">
    <vehicle id="10_1" x="994.05" y="985.64" z="0.75" angle="79.64" speed="0.78" type="passenger" length="4.50" width="1.80" height="1.50"/>
    <vehicle id="10_10" x="992.13" y="972.99" z="0.75" angle="93.56" speed="0.26" type="passenger" length="4.50" width="1.80" height="1.50"/>
    <vehicle id="10_11" x="1019.09" y="986.96" z="0.75" angle="-9.74" speed="9.30" type="passenger" length="4.50" width="1.80" height="1.50"/>
    <vehicle id="10_12" x="965.54" y="1000.39" z="0.75" angle="169.37" speed="9.31" type="passenger" length="4.50" width="1.80" height="1.50"/>
    <vehicle id="10_13" x="980.12" y="990.56" z="0.75" angle="-11.92" speed="0.00" type="passenger" length="4.50" width="1.80" height="1.50"/>
    <vehicle id="10_14" x="996.35" y="978.07" z="0.75" angle="74.60" speed="0.39" type="passenger" length="4.50" width="1.80" height="1.50"/>
    <vehicle id="10_15" x="971.74" y="995.67" z="0.75" angle="-10.26" speed="6.22" type="passenger" length="4.50" width="1.80" height="1.50"/>
    <vehicle id="10_16" x="994.49" y="969.86" z="0.75" angle="81.93" speed="2.50" type="passenger" length="4.50" width="1.80" height="1.50"/>
    <vehicle id="10_17" x="945.38" y="997.49" z="0.75" angle="-10.94" speed="10.77" type="passenger" length="4.50" width="1.80" height="1.50"/>
    <vehicle id="10_18" x="1032.56" y="991.74" z="0.75" angle="167.30" speed="6.83" type="passenger" length="4.50" width="1.80" height="1.50"/>
    <vehicle id="10_2" x="996.47" y="994.38" z="0.75" angle="-59.64" speed="4.38" type="passenger" length="4.50" width="1.80" height="1.50"/>
    <vehicle id="10_3" x="991.13" y="999.47" z="0.75" angle="-75.63" speed="4.43" type="passenger" length="4.50" width="1.80" height="1.50"/>
    <vehicle id="10_4" x="954.34" y="1003.34" z="0.75" angle="171.09" speed="8.77" type="passenger" length="4.50" width="1.80" height="1.50"/>
    <vehicle id="10_5" x="1007.24" y="978.88" z="0.75" angle="-31.05" speed="3.08" type="passenger" length="4.50" width="1.80" height="1.50"/>
    <vehicle id="10_6" x="1002.97" y="998.04" z="0.75" angle="172.17" speed="2.92" type="passenger" length="4.50" width="1.80" height="1.50"/>
    <vehicle id="10_7" x="1011.83" y="998.44" z="0.75" angle="-162.61" speed="3.30" type="passenger" length="4.50" width="1.80" height="1.50"/>
    <vehicle id="10_8" x="982.45" y="1004.96" z="0.75" angle="-144.21" speed="3.87" type="passenger" length="4.50" width="1.80" height="1.50"/>
  </timestep>
  <timestep time="1.10">
    <vehicle id="10_1" x="994.06" y="985.72" z="0.75" angle="79.64" speed="0.74" type="passenger" length="4.50" width="1.80" height="1.50"/>
    <vehicle id="10_10" x="992.13" y="973.02" z="0.75" angle="93.51" speed="0.30" type="passenger" length="4.50" width="1.80" height="1.50"/>
    <vehicle id="10_11" x="1020.01" y="986.80" z="0.75" angle="-9.74" speed="9.20" type="passenger" length="4.50" width="1.80" height="1.50"/>
    <vehicle id="10_12" x="964.63" y="1000.56" z="0.75" angle="169.42" speed="9.29" type="passenger" length="4.50" width="1.80" height="1.50"/>
    <vehicle id="10_13" x="980.12" y="990.56" z="0.75" angle="-11.97" speed="0.00" type="passenger" length="4.50" width="1.80" height="1.50"/>
    <vehicle id="10_14" x="996.36" y="978.11" z="0.75" angle="74.60" speed="0.34" type="passenger" length="4.50" width="1.80" height="1.50"/>
    <vehicle id="10_15" x="972.35" y="995.56" z="0.75" angle="-10.26" speed="5.81" type="passenger" length="4.50" width="1.80" height="1.50"/>
    <vehicle id="10_16" x="994.54" y="970.11" z="0.75" angle="81.59" speed="2.35" type="passenger" length="4.50" width="1.80" height="1.50"/>
    <vehicle id="10_17" x="946.44" y="997.29" z="0.75" angle="-10.94" speed="10.59" type="passenger" length="4.50" width="1.80" height="1.50"/>
    <vehicle id="10_18" x="1031.90" y="991.89" z="0.75" angle="167.30" speed="6.76" type="passenger" length="4.50" width="1.80" height="1.50"/>
    <vehicle id="10_2" x="996.71" y="994.02" z="0.75" angle="-58.61" speed="4.49" type="passenger" length="4.50" width="1.80" height="1.50"/>
    <vehicle id="10_3" x="991.30" y="999.06" z="0.75" angle="-73.17" speed="4.37" type="passenger" length="4.50" width="1.80" height="1.50"/>
    <vehicle id="10_4" x="953.47" y="1003.47" z="0.75" angle="171.03" speed="8.76" type="passenger" length="4.50" width="1.80" height="1.50"/>
    <vehicle id="10_5" x="1007.47" y="978.67" z="0.75" angle="-33.00" speed="3.12" type="passenger" length="4.50" width="1.80" height="1.50"/>
    <vehicle id="10_6" x="1002.68" y="998.09" z="0.75" angle="171.77" speed="3.00" type="passenger" length="4.50" width="1.80" height="1.50"/>
    <vehicle id="10_7" x="1011.51" y="998.37" z="0.75" angle="-164.15" speed="3.29" type="passenger" length="4.50" width="1.80" height="1.50"/>
    <vehicle id="10_8" x="982.10" y="1004.78" z="0.75" angle="-145.76" speed="3.97" type="passenger" length="4.50" width="1.80" height="1.50"/>
  </timestep>
  <timestep time="1.20">