<?xml version="1.0" ?>
<fcd-export>
  <timestep time="1.40">
    <vehicle id="1_1" x="1028.29" y="1005.10" z="0.75" angle="-105.48" speed="0.00" type="passenger" length="4.50" width="1.80" height="1.50"/>
    <vehicle id="1_10" x="976.69" y="999.12" z="0.75" angle="169.92" speed="13.28" type="passenger" length="4.50" width="1.80" height="1.50"/>
    <vehicle id="1_11" x="1022.68" y="1007.72" z="0.75" angle="-117.49" speed="1.41" type="passenger" length="4.50" width="1.80" height="1.50"/>
    <vehicle id="1_12" x="1035.37" y="988.26" z="0.75" angle="170.40" speed="12.28" type="passenger" length="4.50" width="1.80" height="1.50"/>
    <vehicle id="1_2" x="959.90" y="1000.91" z="0.75" angle="162.47" speed="13.69" type="passenger" length="4.50" width="1.80" height="1.50"/>
    <vehicle id="1_3" x="1026.04" y="997.51" z="0.75" angle="-103.42" speed="0.00" type="passenger" length="4.50" width="1.80" height="1.50"/>
    <vehicle id="1_4" x="992.87" y="982.43" z="0.75" angle="87.20" speed="0.00" type="passenger" length="4.50" width="1.80" height="1.50"/>
    <vehicle id="1_5" x="1029.90" y="1012.82" z="0.75" angle="-103.36" speed="0.00" type="passenger" length="4.50" width="1.80" height="1.50"/>
    <vehicle id="1_6" x="1016.52" y="1001.08" z="0.75" angle="-134.54" speed="0.18" type="passenger" length="4.50" width="1.80" height="1.50"/>
    <vehicle id="1_8" x="1011.53" y="966.67" z="0.75" angle="-80.74" speed="8.87" type="passenger" length="4.50" width="1.80" height="1.50"/>
  </timestep>
  <timestep time="1.50">
    <vehicle id="1_1" x="1028.29" y="1005.10" z="0.75" angle="-105.48" speed="0.00" type="passenger" length="4.50" width="1.80" height="1.50"/>
    <vehicle id="1_10" x="975.38" y="999.35" z="0.75" angle="169.93" speed="13.23" type="passenger" length="4.50" width="1.80" height="1.50"/>
    <vehicle id="1_11" x="1022.61" y="1007.60" z="0.75" angle="-117.59" speed="1.28" type="passenger" length="4.50" width="1.80" height="1.50"/>
    <vehicle id="1_12" x="1034.16" y="988.47" z="0.75" angle="170.37" speed="12.30" type="passenger" length="4.50" width="1.80" height="1.50"/>
    <vehicle id="1_2" x="958.59" y="1001.31" z="0.75" angle="163.06" speed="13.82" type="passenger" length="4.50" width="1.80" height="1.50"/>
    <vehicle id="1_3" x="1026.04" y="997.51" z="0.75" angle="-103.42" speed="0.00" type="passenger" length="4.50" width="1.80" height="1.50"/>
    <vehicle id="1_4" x="992.87" y="982.43" z="0.75" angle="87.20" speed="0.00" type="passenger" length="4.50" width="1.80" height="1.50"/>
    <vehicle id="1_5" x="1029.90" y="1012.82" z="0.75" angle="-103.36" speed="0.00" type="passenger" length="4.50" width="1.80" height="1.50"/>
    <vehicle id="1_6" x="1016.51" y="1001.07" z="0.75" angle="-134.75" speed="0.16" type="passenger" length="4.50" width="1.80" height="1.50"/>
    <vehicle id="1_8" x="1011.64" y="965.79" z="0.75" angle="-81.77" speed="8.88" type="passenger" length="4.50" width="1.80" height="1.50"/>
  </timestep>
  <timestep time="1.60">
    <vehicle id="1_1" x="1028.29" y="1005.10" z="0.75" angle="-105.48" speed="0.00" type="passenger" length="4.50" width="1.80" height="1.50"/>
    <vehicle id="1_10" x="974.08" y="999.58" z="0.75" angle="169.94" speed="13.18" type="passenger" length="4.50" width="1.80" height="1.50"/>
    <vehicle id="1_11" x="1022.55" y="1007.49" z="0.75" angle="-117.72" speed="1.15" type="passenger" length="4.50" width="1.80" height="1.50"/>
    <vehicle id="1_12" x="1032.94" y="988.68" z="0.75" angle="170.33" speed="12.31" type="passenger" length="4.50" width="1.80" height="1.50"/>
    <vehicle id="1_2" x="957.27" y="1001.71" z="0.75" angle="163.61" speed="13.92" type="passenger" length="4.50" width="1.80" height="1.50"/>
    <vehicle id="1_3" x="1026.04" y="997.51" z="0.75" angle="-103.42" speed="0.00" type="passenger" length="4.50" width="1.80" height="1.50"/>
    <vehicle id="1_4" x="992.87" y="982.43" z="0.75" angle="87.20" speed="0.00" type="passenger" length="4.50" width="1.80" height="1.50"/>
    <vehicle id="1_5" x="1029.90" y="1012.82" z="0.75" angle="-103.36" speed="0.00" type="passenger" length="4.50" width="1.80" height="1.50"/>
    <vehicle id="1_6" x="1016.50" y="1001.05" z="0.75" angle="-134.74" speed="0.15" type="passenger" length="4.50" width="1.80" height="1.50"/>
    <vehicle id="1_8" x="1011.74" y="964.91" z="0.75" angle="-82.78" speed="8.89" type="passenger" length="4.50" width="1.80" height="1.50"/>
  </timestep>
  <timestep time="1.70">
    <vehicle id="1_1" x="1028.29" y="1005.10" z="0.75" angle="-105.48" speed="0.00" type="passenger" length="4.50" width="1.80" height="1.50"/>
    <vehicle id="1_10" x="972.78" y="999.81" z="0.75" angle="169.94" speed="13.13" type="passenger" length="4.50" width="1.80" height="1.50"/>
    <vehicle id="1_11" x="1022.49" y="1007.39" z="0.75" angle="-117.80" speed="1.04" type="passenger" length="4.50" width="1.80" height="1.50"/>
    <vehicle id="1_12" x="1031.73" y="988.88" z="0.75" angle="170.29" speed="12.33" type="passenger" length="4.50" width="1.80" height="1.50"/>
    <vehicle id="1_2" x="955.93" y="1002.09" z="0.75" angle="164.14" speed="14.02" type="passenger" length="4.50" width="1.80" height="1.50"/>
    <vehicle id="1_3" x="1026.04" y="997.51" z="0.75" angle="-103.42" speed="0.00" type="passenger" length="4.50" width="1.80" height="1.50"/>
    <vehicle id="1_4" x="992.87" y="982.43" z="0.75" angle="87.20" speed="0.00" type="passenger" length="4.50" width="1.80" height="1.50"/>
    <vehicle id="1_5" x="1029.90" y="1012.82" z="0.75" angle="-103.36" speed="0.00" type="passenger" length="4.50" width="1.80" height="1.50"/>
    <vehicle id="1_6" x="1016.49" y="1001.04" z="0.75" angle="-134.72" speed="0.15" type="passenger" length="4.50" width="1.80" height="1.50"/>
    <vehicle id="1_8" x="1011.83" y="964.02" z="0.75" angle="-83.77" speed="8.89" type="passenger" length="4.50" width="1.80" height="1.50"/>
  </timestep>
  <timestep time="1.80">
    <vehicle id="1_1" x="1028.29" y="1005.10" z="0.75" angle="-105.48" speed="0.00" type="passenger" length="4.50" width="1.80" height="1.50"/>
    <vehicle id="1_10" x="971.49" y="1000.04" z="0.75" angle="169.94" speed="13.08" type="passenger" length="4.50" width="1.80" height="1.50"/>
    <vehicle id="1_11" x="1022.44" y="1007.30" z="0.75" angle="-117.91" speed="0.93" type="passenger" length="4.50" width="1.80" height="1.50"/>
    <vehicle id="1_12" x="1030.52" y="989.09" z="0.75" angle="170.25" speed="12.34" type="passenger" length="4.50" width="1.80" height="1.50"/>
    <vehicle id="1_2" x="954.58" y="1002.46" z="0.75" angle="164.63" speed="14.10" type="passenger" length="4.50" width="1.80" height="1.50"/>
    <vehicle id="1_3" x="1026.04" y="997.51" z="0.75" angle="-103.42" speed="0.00" type="passenger" length="4.50" width="1.80" height="1.50"/>
    <vehicle id="1_4" x="992.87" y="982.43" z="0.75" angle="87.20" speed="0.00" type="passenger" length="4.50" width="1.80" height="1.50"/>
    <vehicle id="1_5" x="1029.90" y="1012.82" z="0.75" angle="-103.36" speed="0.00" type="passenger" length="4.50" width="1.80" height="1.50"/>
    <vehicle id="1_6" x="1016.48" y="1001.03" z="0.75" angle="-134.71" speed="0.14" type="passenger" length="4.50" width="1.80" height="1.50"/>
  </timestep>
  <timestep time="1.90">
    <vehicle id="1_1" x="1028.29" y="1005.10" z="0.75" angle="-105.48" speed="0.00" type="passenger" length="4.50" width="1.80" height="1.50"/>
    <vehicle id="1_10" x="970.20" y="1000.27" z="0.75" angle="169.93" speed="13.03" type="passenger" length="4.50" width="1.80" height="1.50"/>
    <vehicle id="1_11" x="1022.39" y="1007.22" z="0.75" angle="-118.09" speed="0.84" type="passenger" length="4.50" width="1.80" height="1.50"/>
    <vehicle id="1_12" x="1029.30" y="989.30" z="0.75" angle="170.20" speed="12.35" type="passenger" length="4.50" width="1.80" height="1.50"/>
    <vehicle id="1_2" x="953.22" y="1002.82" z="0.75" angle="165.09" speed="14.16" type="passenger" length="4.50" width="1.80" height="1.50"/>
    <vehicle id="1_3" x="1026.04" y="997.51" z="0.75" angle="-103.36" speed="0.00" type="passenger" length="4.50" width="1.80" height="1.50"/>
    <vehicle id="1_4" x="992.87" y="982.43" z="0.75" angle="87.20" speed="0.00" type="passenger" length="4.50" width="1.80" height="1.50"/>
    <vehicle id="1_5" x="1029.90" y="1012.82" z="0.75" angle="-103.36" speed="0.00" type="passenger" length="4.50" width="1.80" height="1.50"/>
    <vehicle id="1_6" x="1016.46" y="1001.02" z="0.75" angle="-134.71" speed="0.14" type="passenger" length="4.50" width="1.80" height="1.50"/>
  </timestep>
  <timestep time="2.00">
    <vehicle id="1_1" x="1028.29" y="1005.10" z="0.75" angle="-105.48" speed="0.00" type="passenger" length="4.50" width="1.80" height="1.50"/>
    <vehicle id="1_10" x="968.92" y="1000.50" z="0.75" angle="169.93" speed="12.98" type="passenger" length="4.50" width="1.80" height="1.50"/>
    <vehicle id="1_11" x="1022.35" y="1007.14" z="0.75" angle="-118.15" speed="0.76" type="passenger" length="4.50" width="1.80" height="1.50"/>
    <vehicle id="1_12" x="1028.08" y="989.51" z="0.75" angle="170.16" speed="12.36" type="passenger" length="4.50" width="1.80" height="1.50"/>
    <vehicle id="1_2" x="951.84" y="1003.18" z="0.75" angle="165.53" speed="14.22" type="passenger" length="4.50" width="1.80" height="1.50"/>
    <vehicle id="1_3" x="1026.04" y="997.51" z="0.75" angle="-103.36" speed="0.00" type="passenger" length="4.50" width="1.80" height="1.50"/>
    <vehicle id="1_4" x="992.87" y="982.43" z="0.75" angle="87.20" speed="0.00" type="passenger" length="4.50" width="1.80" height="1.50"/>
    <vehicle id="1_5" x="1029.90" y="1012.82" z="0.75" angle="-103.36" speed="0.00" type="passenger" length="4.50" width="1.80" height="1.50"/>
    <vehicle id="1_6" x="1016.45" y="1001.01" z="0.75" angle="-134.72" speed="0.14" type="passenger" length="4.50" width="1.80" height="1.50"/>
  </timestep>
  <timestep time="2.10">
    <vehicle id="1_1" x="1028.29" y="1005.10" z="0.75" angle="-105.48" speed="0.00" type="passenger" length="4.50" width="1.80" height="1.50"/>
    <vehicle id="1_10" x="967.64" y="1000.72" z="0.75" angle="169.92" speed="12.92" type="passenger" length="4.50" width="1.80" height="1.50"/>
    <vehicle id="1_11" x="1022.31" y="1007.08" z="0.75" angle="-118.26" speed="0.69" type="passenger" length="4.50" width="1.80" height="1.50"/>
    <vehicle id="1_12" x="1026.87" y="989.73" z="0.75" angle="170.12" speed="12.37" type="passenger" length="4.50" width="1.80" height="1.50"/>
    <vehicle id="1_2" x="950.47" y="1003.52" z="0.75" angle="165.93" speed="14.26" type="passenger" length="4.50" width="1.80" height="1.50"/>
    <vehicle id="1_3" x="1026.04" y="997.51" z="0.75" angle="-103.36" speed="0.00" type="passenger" length="4.50" width="1.80" height="1.50"/>
    <vehicle id="1_4" x="992.87" y="982.43" z="0.75" angle="87.15" speed="0.00" type="passenger" length="4.50" width="1.80" height="1.50"/>
    <vehicle id="1_5" x="1029.90" y="1012.82" z="0.75" angle="-103.36" speed="0.00" type="passenger" length="4.50" width="1.80" height="1.50"/>
    <vehicle id="1_6" x="1016.44" y="1001.00" z="0.75" angle="-135.00" speed="0.15" type="passenger" length="4.50" width="1.80" height="1.50"/>
  </timestep>
  <timestep time="2.20">
    <vehicle id="1_1" x="1028.29" y="1005.10" z="0.75" angle="-105.48" speed="0.00" type="passenger" length="4.50" width="1.80" height="1.50"/>
    <vehicle id="1_10" x="966.37" y="1000.95" z="0.75" angle="169.92" speed="12.87" type="passenger" length="4.50" width="1.80" height="1.50"/>
    <vehicle id="1_11" x="1022.27" y="1007.02" z="0.75" angle="-118.36" speed="0.64" type="passenger" length="4.50" width="1.80" height="1.50"/>
    <vehicle id="1_12" x="1025.65" y="989.94" z="0.75" angle="170.08" speed="12.38" type="passenger" length="4.50" width="1.80" height="1.50"/>
    <vehicle id="1_2" x="949.08" y="1003.86" z="0.75" angle="166.29" speed="14.29" type="passenger" length="4.50" width="1.80" height="1.50"/>
    <vehicle id="1_3" x="1026.04" y="997.51" z="0.75" angle="-103.36" speed="0.00" type="passenger" length="4.50" width="1.80" height="1.50"/>
    <vehicle id="1_4" x="992.87" y="982.43" z="0.75" angle="87.15" speed="0.00" type="passenger" length="4.50" width="1.80" height="1.50"/>
    <vehicle id="1_5" x="1029.90" y="1012.82" z="0.75" angle="-103.36" speed="0.00" type="passenger" length="4.50" width="1.80" height="1.50"/>
    <vehicle id="1_6" x="1016.43" y="1000.99" z="0.75" angle="-135.00" speed="0.17" type="passenger" length="4.50" width="1.80" height="1.50"/>
  </timestep>
  <timestep time="2.30">
    <vehicle id="1_1" x="1028.29" y="1005.10" z="0.75" angle="-105.48" speed="0.00" type="passenger" length="4.50" width="1.80" height="1.50"/>
    <vehicle id="1_10" x="965.10" y="1001.17" z="0.75" angle="169.92" speed="12.82" type="passenger" length="4.50" width="1.80" height="1.50"/>
    <vehicle id="1_11" x="1022.24" y="1006.96" z="0.75" angle="-118.48" speed="0.60" type="passenger" length="4.50" width="1.80" height="1.50"/>
    <vehicle id="1_12" x="1024.43" y="990.15" z="0.75" angle="170.05" speed="12.39" type="passenger" length="4.50" width="1.80" height="1.50"/>
    <vehicle id="1_2" x="947.69" y="1004.19" z="0.75" angle="166.63" speed="14.32" type="passenger" length="4.50" width="1.80" height="1.50"/>
    <vehicle id="1_3" x="1026.05" y="997.53" z="0.75" angle="-103.59" speed="0.19" type="passenger" length="4.50" width="1.80" height="1.50"/>
    <vehicle id="1_4" x="992.87" y="982.43" z="0.75" angle="87.15" speed="0.00" type="passenger" length="4.50" width="1.80" height="1.50"/>
    <vehicle id="1_5" x="1029.90" y="1012.82" z="0.75" angle="-103.36" speed="0.00" type="passenger" length="4.50" width="1.80" height="1.50"/>
    <vehicle id="1_6" x="1016.42" y="1000.98" z="0.75" angle="-134.78" speed="0.19" type="passenger" length="4.50" width="1.80" height="1.50"/>
  </timestep>
  <timestep time="2.40">
    <vehicle id="1_1" x="1028.29" y="1005.10" z="0.75" angle="-105.48" speed="0.00" type="passenger" length="4.50" width="1.80" height="1.50"/>
    <vehicle id="1_10" x="963.84" y="1001.40" z="0.75" angle="169.91" speed="12.76" type="passenger" length="4.50" width="1.80" height="1.50"/>
    <vehicle id="1_11" x="1022.21" y="1006.91" z="0.75" angle="-118.57" speed="0.58" type="passenger" length="4.50" width="1.80" height="1.50"/>
    <vehicle id="1_12" x="1023.21" y="990.37" z="0.75" angle="170.01" speed="12.40" type="passenger" length="4.50" width="1.80" height="1.50"/>
    <vehicle id="1_2" x="946.29" y="1004.52" z="0.75" angle="166.92" speed="14.33" type="passenger" length="4.50" width="1.80" height="1.50"/>
    <vehicle id="1_3" x="1026.04" y="997.51" z="0.75" angle="-103.59" speed="0.34" type="passenger" length="4.50" width="1.80" height="1.50"/>
    <vehicle id="1_4" x="992.87" y="982.43" z="0.75" angle="87.15" speed="0.00" type="passenger" length="4.50" width="1.80" height="1.50"/>
    <vehicle id="1_5" x="1029.90" y="1012.82" z="0.75" angle="-103.36" speed="0.00" type="passenger" length="4.50" width="1.80" height="1.50"/>
    <vehicle id="1_6" x="1016.41" y="1000.97" z="0.75" angle="-134.81" speed="0.21" type="passenger" length="4.50" width="1.80" height="1.50"/>
  </timestep>
  <timestep time="2.50">
    <vehicle id="1_1" x="1028.29" y="1005.10" z="0.75" angle="-105.48" speed="0.00" type="passenger" length="4.50" width="1.80" height="1.50"/>
    <vehicle id="1_10" x="962.58" y="1001.62" z="0.75" angle="169.92" speed="12.71" type="passenger" length="4.50" width="1.80" height="1.50"/>
    <vehicle id="1_11" x="1022.18" y="1006.86" z="0.75" angle="-118.58" speed="0.56" type="passenger" length="4.50" width="1.80" height="1.50"/>
    <vehicle id="1_12" x="1021.99" y="990.59" z="0.75" angle="169.99" speed="12.42" type="passenger" length="4.50" width="1.80" height="1.50"/>
    <vehicle id="1_2" x="944.90" y="1004.84" z="0.75" angle="167.18" speed="14.35" type="passenger" length="4.50" width="1.80" height="1.50"/>
    <vehicle id="1_3" x="1026.03" y="997.48" z="0.75" angle="-103.58" speed="0.52" type="passenger" length="4.50" width="1.80" height="1.50"/>
    <vehicle id="1_4" x="992.87" y="982.43" z="0.75" angle="87.15" speed="0.00" type="passenger" length="4.50" width="1.80" height="1.50"/>
    <vehicle id="1_5" x="1029.90" y="1012.82" z="0.75" angle="-103.36" speed="0.00" type="passenger" length="4.50" width="1.80" height="1.50"/>
    <vehicle id="1_6" x="1016.39" y="1000.96" z="0.75" angle="-134.84" speed="0.25" type="passenger" length="4.50" width="1.80" height="1.50"/>
  </timestep>
  <timestep time="2.60">
    <vehicle id="1_1" x="1028.29" y="1005.10" z="0.75" angle="-105.48" speed="0.00" type="passenger" length="4.50" width="1.80" height="1.50"/>
    <vehicle id="1_10" x="961.33" y="1001.84" z="0.75" angle="169.93" speed="12.66" type="passenger" length="4.50" width="1.80" height="1.50"/>
    <vehicle id="1_11" x="1022.15" y="1006.81" z="0.75" angle="-118.68" speed="0.56" type="passenger" length="4.50" width="1.80" height="1.50"/>
    <vehicle id="1_12" x="1020.76" y="990.80" z="0.75" angle="169.96" speed="12.43" type="passenger" length="4.50" width="1.80" height="1.50"/>
    <vehicle id="1_2" x="943.50" y="1005.15" z="0.75" angle="167.40" speed="14.35" type="passenger" length="4.50" width="1.80" height="1.50"/>
    <vehicle id="1_3" x="1026.02" y="997.43" z="0.75" angle="-103.64" speed="0.71" type="passenger" length="4.50" width="1.80" height="1.50"/>
    <vehicle id="1_4" x="992.87" y="982.43" z="0.75" angle="87.20" speed="0.00" type="passenger" length="4.50" width="1.80" height="1.50"/>
    <vehicle id="1_5" x="1029.90" y="1012.82" z="0.75" angle="-103.36" speed="0.00" type="passenger" length="4.50" width="1.80" height="1.50"/>
    <vehicle id="1_6" x="1016.37" y="1000.94" z="0.75" angle="-135.00" speed="0.29" type="passenger" length="4.50" width="1.80" height="1.50"/>
  </timestep>
  <timestep time="2.70">
    <vehicle id="1_1" x="1028.29" y="1005.10" z="0.75" angle="-105.48" speed="0.00" type="passenger" length="4.50" width="1.80" height="1.50"/>
    <vehicle id="1_10" x="960.08" y="1002.07" z="0.75" angle="169.94" speed="12.62" type="passenger" length="4.50" width="1.80" height="1.50"/>
    <vehicle id="1_11" x="1022.13" y="1006.77" z="0.75" angle="-118.75" speed="0.56" type="passenger" length="4.50" width="1.80" height="1.50"/>
    <vehicle id="1_12" x="1019.54" y="991.02" z="0.75" angle="169.93" speed="12.44" type="passenger" length="4.50" width="1.80" height="1.50"/>
    <vehicle id="1_2" x="942.10" y="1005.46" z="0.75" angle="167.59" speed="14.35" type="passenger" length="4.50" width="1.80" height="1.50"/>
    <vehicle id="1_3" x="1026.00" y="997.36" z="0.75" angle="-103.55" speed="0.91" type="passenger" length="4.50" width="1.80" height="1.50"/>
    <vehicle id="1_4" x="992.87" y="982.43" z="0.75" angle="87.26" speed="0.00" type="passenger" length="4.50" width="1.80" height="1.50"/>
    <vehicle id="1_5" x="1029.90" y="1012.82" z="0.75" angle="-103.36" speed="0.00" type="passenger" length="4.50" width="1.80" height="1.50"/>
    <vehicle id="1_6" x="1016.35" y="1000.92" z="0.75" angle="-135.00" speed="0.35" type="passenger" length="4.50" width="1.80" height="1.50"/>
  </timestep>
  <timestep time="2.80">
    <vehicle id="1_1" x="1028.29" y="1005.10" z="0.75" angle="-105.48" speed="0.00" type="passenger" length="4.50" width="1.80" height="1.50"/>
    <vehicle id="1_10" x="958.84" y="1002.28" z="0.75" angle="169.96" speed="12.57" type="passenger" length="4.50" width="1.80" height="1.50"/>
    <vehicle id="1_11" x="1022.10" y="1006.72" z="0.75" angle="-118.82" speed="0.58" type="passenger" length="4.50" width="1.80" height="1.50"/>
    <vehicle id="1_12" x="1018.32" y="991.24" z="0.75" angle="169.91" speed="12.46" type="passenger" length="4.50" width="1.80" height="1.50"/>
    <vehicle id="1_2" x="940.69" y="1005.76" z="0.75" angle="167.75" speed="14.36" type="passenger" length="4.50" width="1.80" height="1.50"/>
    <vehicle id="1_3" x="1025.98" y="997.27" z="0.75" angle="-103.44" speed="1.12" type="passenger" length="4.50" width="1.80" height="1.50"/>
    <vehicle id="1_4" x="992.86" y="982.45" z="0.75" angle="87.43" speed="0.16" type="passenger" length="4.50" width="1.80" height="1.50"/>
    <vehicle id="1_5" x="1029.90" y="1012.82" z="0.75" angle="-103.36" speed="0.00" type="passenger" length="4.50" width="1.80" height="1.50"/>
    <vehicle id="1_6" x="1016.33" y="1000.89" z="0.75" angle="-135.00" speed="0.41" type="passenger" length="4.50" width="1.80" height="1.50"/>
  </timestep>
  <timestep time="2.90">
    <vehicle id="1_1" x="1028.29" y="1005.10" z="0.75" angle="-105.48" speed="0.00" type="passenger" length="4.50" width="1.80" height="1.50"/>
    <vehicle id="1_10" x="957.60" y="1002.50" z="0.75" angle="169.99" speed="12.54" type="passenger" length="4.50" width="1.80" height="1.50"/>
    <vehicle id="1_11" x="1022.07" y="1006.67" z="0.75" angle="-118.89" speed="0.61" type="passenger" length="4.50" width="1.80" height="1.50"/>
    <vehicle id="1_12" x="1017.09" y="991.46" z="0.75" angle="169.88" speed="12.47" type="passenger" length="4.50" width="1.80" height="1.50"/>
    <vehicle id="1_2" x="939.29" y="1006.07" z="0.75" angle="167.88" speed="14.35" type="passenger" length="4.50" width="1.80" height="1.50"/>
    <vehicle id="1_3" x="1025.96" y="997.16" z="0.75" angle="-103.20" speed="1.35" type="passenger" length="4.50" width="1.80" height="1.50"/>
    <vehicle id="1_4" x="992.86" y="982.47" z="0.75" angle="87.56" speed="0.21" type="passenger" length="4.50" width="1.80" height="1.50"/>
    <vehicle id="1_5" x="1029.90" y="1012.82" z="0.75" angle="-103.36" speed="0.00" type="passenger" length="4.50" width="1.80" height="1.50"/>
    <vehicle id="1_6" x="1016.30" y="1000.87" z="0.75" angle="-135.08" speed="0.48" type="passenger" length="4.50" width="1.80" height="1.50"/>
  </timestep>
  <timestep time="3.00">
    <vehicle id="1_1" x="1028.29" y="1005.10" z="0.75" angle="-105.48" speed="0.00" type="passenger" length="4.50" width="1.80" height="1.50"/>
    <vehicle id="1_10" x="956.37" y="1002.72" z="0.75" angle="170.01" speed="12.50" type="passenger" length="4.50" width="1.80" height="1.50"/>
    <vehicle id="1_11" x="1022.04" y="1006.62" z="0.75" angle="-118.92" speed="0.64" type="passenger" length="4.50" width="1.80" height="1.50"/>
    <vehicle id="1_12" x="1015.86" y="991.68" z="0.75" angle="169.85" speed="12.49" type="passenger" length="4.50" width="1.80" height="1.50"/>
    <vehicle id="1_2" x="937.88" y="1006.36" z="0.75" angle="168.01" speed="14.35" type="passenger" length="4.50" width="1.80" height="1.50"/>
    <vehicle id="1_3" x="1025.94" y="997.03" z="0.75" angle="-102.88" speed="1.58" type="passenger" length="4.50" width="1.80" height="1.50"/>
    <vehicle id="1_4" x="992.86" y="982.49" z="0.75" angle="87.70" speed="0.25" type="passenger" length="4.50" width="1.80" height="1.50"/>
    <vehicle id="1_5" x="1029.90" y="1012.82" z="0.75" angle="-103.36" speed="0.00" type="passenger" length="4.50" width="1.80" height="1.50"/>
    <vehicle id="1_6" x="1016.26" y="1000.83" z="0.75" angle="-135.14" speed="0.56" type="passenger" length="4.50" width="1.80" height="1.50"/>
  </timestep>
  <timestep time="3.10">
    <vehicle id="1_1" x="1028.29" y="1005.10" z="0.75" angle="-105.48" speed="0.00" type="passenger" length="4.50" width="1.80" height="1.50"/>
    <vehicle id="1_10" x="955.13" y="1002.94" z="0.75" angle="170.03" speed="12.48" type="passenger" length="4.50" width="1.80" height="1.50"/>
    <vehicle id="1_11" x="1022.00" y="1006.56" z="0.75" angle="-119.04" speed="0.68" type="passenger" length="4.50" width="1.80" height="1.50"/>
    <vehicle id="1_12" x="1014.63" y="991.90" z="0.75" angle="169.81" speed="12.50" type="passenger" length="4.50" width="1.80" height="1.50"/>
    <vehicle id="1_2" x="936.48" y="1006.66" z="0.75" angle="168.12" speed="14.35" type="passenger" length="4.50" width="1.80" height="1.50"/>
    <vehicle id="1_3" x="1025.91" y="996.87" z="0.75" angle="-102.42" speed="1.83" type="passenger" length="4.50" width="1.80" height="1.50"/>
    <vehicle id="1_4" x="992.85" y="982.51" z="0.75" angle="87.77" speed="0.28" type="passenger" length="4.50" width="1.80" height="1.50"/>
    <vehicle id="1_5" x="1029.90" y="1012.82" z="0.75" angle="-103.36" speed="0.00" type="passenger" length="4.50" width="1.80" height="1.50"/>
    <vehicle id="1_6" x="1016.22" y="1000.79" z="0.75" angle="-135.19" speed="0.65" type="passenger" length="4.50" width="1.80" height="1.50"/>
  </timestep>
  <timestep time="3.20">
    <vehicle id="1_1" x="1028.29" y="1005.10" z="0.75" angle="-105.48" speed="0.00" type="passenger" length="4.50" width="1.80" height="1.50"/>
    <vehicle id="1_10" x="953.91" y="1003.15" z="0.75" angle="170.06" speed="12.46" type="passenger" length="4.50" width="1.80" height="1.50"/>
    <vehicle id="1_11" x="1021.97" y="1006.50" z="0.75" angle="-119.12" speed="0.73" type="passenger" length="4.50" width="1.80" height="1.50"/>
    <vehicle id="1_12" x="1013.40" y="992.12" z="0.75" angle="169.78" speed="12.51" type="passenger" length="4.50" width="1.80" height="1.50"/>
    <vehicle id="1_2" x="935.08" y="1006.95" z="0.75" angle="168.23" speed="14.35" type="passenger" length="4.50" width="1.80" height="1.50"/>
    <vehicle id="1_3" x="1025.89" y="996.69" z="0.75" angle="-101.83" speed="2.08" type="passenger" length="4.50" width="1.80" height="1.50"/>
    <vehicle id="1_4" x="992.85" y="982.54" z="0.75" angle="88.03" speed="0.32" type="passenger" length="4.50" width="1.80" height="1.50"/>
    <vehicle id="1_5" x="1029.90" y="1012.82" z="0.75" angle="-103.36" speed="0.00" type="passenger" length="4.50" width="1.80" height="1.50"/>
    <vehicle id="1_6" x="1016.17" y="1000.75" z="0.75" angle="-135.32" speed="0.75" type="passenger" length="4.50" width="1.80" height="1.50"/>
  </timestep>
  <timestep time="3.30">
    <vehicle id="1_1" x="1028.29" y="1005.10" z="0.75" angle="-105.48" speed="0.00" type="passenger" length="4.50" width="1.80" height="1.50"/>
    <vehicle id="1_10" x="952.68" y="1003.37" z="0.75" angle="170.08" speed="12.44" type="passenger" length="4.50" width="1.80" height="1.50"/>
    <vehicle id="1_11" x="1021.93" y="1006.44" z="0.75" angle="-119.20" speed="0.79" type="passenger" length="4.50" width="1.80" height="1.50"/>
    <vehicle id="1_12" x="1012.17" y="992.34" z="0.75" angle="169.74" speed="12.52" type="passenger" length="4.50" width="1.80" height="1.50"/>
    <vehicle id="1_3" x="1025.86" y="996.48" z="0.75" angle="-101.04" speed="2.33" type="passenger" length="4.50" width="1.80" height="1.50"/>
    <vehicle id="1_4" x="992.85" y="982.57" z="0.75" angle="88.27" speed="0.37" type="passenger" length="4.50" width="1.80" height="1.50"/>
    <vehicle id="1_5" x="1029.90" y="1012.82" z="0.75" angle="-103.36" speed="0.00" type="passenger" length="4.50" width="1.80" height="1.50"/>
    <vehicle id="1_6" x="1016.12" y="1000.70" z="0.75" angle="-135.43" speed="0.86" type="passenger" length="4.50" width="1.80" height="1.50"/>
  </timestep>
  <timestep time="3.40">
    <vehicle id="1_1" x="1028.29" y="1005.10" z="0.75" angle="-105.48" speed="0.00" type="passenger" length="4.50" width="1.80" height="1.50"/>
    <vehicle id="1_10" x="951.45" y="1003.58" z="0.75" angle="170.10" speed="12.43" type="passenger" length="4.50" width="1.80" height="1.50"/>
    <vehicle id="1_11" x="1021.89" y="1006.37" z="0.75" angle="-119.28" speed="0.85" type="passenger" length="4.50" width="1.80" height="1.50"/>
    <vehicle id="1_12" x="1010.94" y="992.57" z="0.75" angle="169.69" speed="12.53" type="passenger" length="4.50" width="1.80" height="1.50"/>
    <vehicle id="1_3" x="1025.84" y="996.25" z="0.75" angle="-100.01" speed="2.58" type="passenger" length="4.50" width="1.80" height="1.50"/>
    <vehicle id="1_4" x="992.84" y="982.61" z="0.75" angle="88.49" speed="0.42" type="passenger" length="4.50" width="1.80" height="1.50"/>
    <vehicle id="1_5" x="1029.90" y="1012.82" z="0.75" angle="-103.36" speed="0.00" type="passenger" length="4.50" width="1.80" height="1.50"/>
    <vehicle id="1_6" x="1016.05" y="1000.64" z="0.75" angle="-135.54" speed="0.97" type="passenger" length="4.50" width="1.80" height="1.50"/>
  </timestep>
  <timestep time="3.50">
    <vehicle id="1_1" x="1028.28" y="1005.08" z="0.75" angle="-105.41" speed="0.13" type="passenger" length="4.50" width="1.80" height="1.50"/>
    <vehicle id="1_10" x="950.23" y="1003.79" z="0.75" angle="170.12" speed="12.43" type="passenger" length="4.50" width="1.80" height="1.50"/>
    <vehicle id="1_11" x="1021.85" y="1006.30" z="0.75" angle="-119.39" speed="0.92" type="passenger" length="4.50" width="1.80" height="1.50"/>
    <vehicle id="1_12" x="1009.71" y="992.79" z="0.75" angle="169.65" speed="12.53" type="passenger" length="4.50" width="1.80" height="1.50"/>
    <vehicle id="1_3" x="1025.82" y="995.99" z="0.75" angle="-98.72" speed="2.82" type="passenger" length="4.50" width="1.80" height="1.50"/>
    <vehicle id="1_4" x="992.84" y="982.65" z="0.75" angle="88.81" speed="0.48" type="passenger" length="4.50" width="1.80" height="1.50"/>
    <vehicle id="1_5" x="1029.90" y="1012.82" z="0.75" angle="-103.36" speed="0.00" type="passenger" length="4.50" width="1.80" height="1.50"/>
    <vehicle id="1_6" x="1015.98" y="1000.58" z="0.75" angle="-135.75" speed="1.08" type="passenger" length="4.50" width="1.80" height="1.50"/>
  </timestep>
  <timestep time="3.60">
    <vehicle id="1_1" x="1028.27" y="1005.07" z="0.75" angle="-105.44" speed="0.19" type="passenger" length="4.50" width="1.80" height="1.50"/>
    <vehicle id="1_10" x="949.00" y="1004.01" z="0.75" angle="170.14" speed="12.43" type="passenger" length="4.50" width="1.80" height="1.50"/>
    <vehicle id="1_11" x="1021.80" y="1006.22" z="0.75" angle="-119.47" speed="0.99" type="passenger" length="4.50" width="1.80" height="1.50"/>