<?xml version="1.0" ?>
<fcd-export>
  <timestep time="0.00">
    <vehicle id="46_10" x="1009.57" y="970.21" z="0.75" angle="-85.43" speed="0.00" type="passenger" length="4.50" width="1.80" height="1.50"/>
    <vehicle id="46_2" x="1009.62" y="962.83" z="0.75" angle="90.01" speed="0.10" type="passenger" length="4.50" width="1.80" height="1.50"/>
    <vehicle id="46_3" x="977.11" y="998.47" z="0.75" angle="161.00" speed="9.58" type="passenger" length="4.50" width="1.80" height="1.50"/>
    <vehicle id="46_4" x="1032.16" y="984.79" z="0.75" angle="-10.08" speed="9.08" type="passenger" length="4.50" width="1.80" height="1.50"/>
    <vehicle id="46_5" x="1016.44" y="999.74" z="0.75" angle="-138.88" speed="2.96" type="passenger" length="4.50" width="1.80" height="1.50"/>
    <vehicle id="46_6" x="994.84" y="997.93" z="0.75" angle="172.69" speed="11.49" type="passenger" length="4.50" width="1.80" height="1.50"/>
    <vehicle id="46_7" x="965.33" y="994.03" z="0.75" angle="-12.43" speed="13.07" type="passenger" length="4.50" width="1.80" height="1.50"/>
  </timestep>
  <timestep time="0.10">
    <vehicle id="46_10" x="1009.57" y="970.21" z="0.75" angle="-85.43" speed="0.00" type="passenger" length="4.50" width="1.80" height="1.50"/>
    <vehicle id="46_2" x="1009.62" y="962.83" z="0.75" angle="90.01" speed="0.10" type="passenger" length="4.50" width="1.80" height="1.50"/>
    <vehicle id="46_3" x="976.19" y="998.76" z="0.75" angle="161.92" speed="9.81" type="passenger" length="4.50" width="1.80" height="1.50"/>
    <vehicle id="46_4" x="1033.06" y="984.63" z="0.75" angle="-10.08" speed="9.08" type="passenger" length="4.50" width="1.80" height="1.50"/>
    <vehicle id="46_5" x="1016.19" y="999.58" z="0.75" angle="-140.66" speed="3.10" type="passenger" length="4.50" width="1.80" height="1.50"/>
    <vehicle id="46_6" x="993.70" y="998.07" z="0.75" angle="172.75" speed="11.39" type="passenger" length="4.50" width="1.80" height="1.50"/>
    <vehicle id="46_7" x="966.61" y="993.75" z="0.75" angle="-12.55" speed="13.02" type="passenger" length="4.50" width="1.80" height="1.50"/>
  </timestep>
  <timestep time="0.20">
    <vehicle id="46_10" x="1009.57" y="970.21" z="0.75" angle="-85.43" speed="0.00" type="passenger" length="4.50" width="1.80" height="1.50"/>
    <vehicle id="46_2" x="1009.62" y="962.83" z="0.75" angle="90.01" speed="0.10" type="passenger" length="4.50" width="1.80" height="1.50"/>
    <vehicle id="46_3" x="975.25" y="999.04" z="0.75" angle="162.83" speed="10.04" type="passenger" length="4.50" width="1.80" height="1.50"/>
    <vehicle id="46_4" x="1033.95" y="984.47" z="0.75" angle="-10.14" speed="9.08" type="passenger" length="4.50" width="1.80" height="1.50"/>
    <vehicle id="46_5" x="1015.92" y="999.41" z="0.75" angle="-142.49" speed="3.25" type="passenger" length="4.50" width="1.80" height="1.50"/>
    <vehicle id="46_6" x="992.57" y="998.22" z="0.75" angle="172.86" speed="11.29" type="passenger" length="4.50" width="1.80" height="1.50"/>
    <vehicle id="46_7" x="967.88" y="993.46" z="0.75" angle="-12.61" speed="12.97" type="passenger" length="4.50" width="1.80" height="1.50"/>
  </timestep>
  <timestep time="0.30">
    <vehicle id="46_10" x="1009.57" y="970.21" z="0.75" angle="-85.43" speed="0.00" type="passenger" length="4.50" width="1.80" height="1.50"/>
    <vehicle id="46_2" x="1009.62" y="962.83" z="0.75" angle="90.01" speed="0.10" type="passenger" length="4.50" width="1.80" height="1.50"/>
    <vehicle id="46_3" x="974.29" y="999.32" z="0.75" angle="163.58" speed="10.25" type="passenger" length="4.50" width="1.80" height="1.50"/>
    <vehicle id="46_5" x="1015.64" y="999.26" z="0.75" angle="-144.44" speed="3.40" type="passenger" length="4.50" width="1.80" height="1.50"/>
    <vehicle id="46_6" x="991.45" y="998.35" z="0.75" angle="172.92" speed="11.19" type="passenger" length="4.50" width="1.80" height="1.50"/>
    <vehicle id="46_7" x="969.14" y="993.17" z="0.75" angle="-12.72" speed="12.91" type="passenger" length="4.50" width="1.80" height="1.50"/>
  </timestep>
  <timestep time="0.40">
    <vehicle id="46_10" x="1009.57" y="970.21" z="0.75" angle="-85.43" speed="0.00" type="passenger" length="4.50" width="1.80" height="1.50"/>
    <vehicle id="46_2" x="1009.62" y="962.83" z="0.75" angle="90.01" speed="0.10" type="passenger" length="4.50" width="1.80" height="1.50"/>
    <vehicle id="46_3" x="973.30" y="999.59" z="0.75" angle="164.32" speed="10.46" type="passenger" length="4.50" width="1.80" height="1.50"/>
    <vehicle id="46_5" x="1015.34" y="999.10" z="0.75" angle="-146.45" speed="3.54" type="passenger" length="4.50" width="1.80" height="1.50"/>
    <vehicle id="46_6" x="990.34" y="998.49" z="0.75" angle="172.98" speed="11.10" type="passenger" length="4.50" width="1.80" height="1.50"/>
    <vehicle id="46_7" x="970.40" y="992.89" z="0.75" angle="-12.83" speed="12.84" type="passenger" length="4.50" width="1.80" height="1.50"/>
  </timestep>
  <timestep time="0.50">
    <vehicle id="46_10" x="1009.57" y="970.21" z="0.75" angle="-85.43" speed="0.00" type="passenger" length="4.50" width="1.80" height="1.50"/>
    <vehicle id="46_2" x="1009.62" y="962.83" z="0.75" angle="90.01" speed="0.10" type="passenger" length="4.50" width="1.80" height="1.50"/>
    <vehicle id="46_3" x="972.29" y="999.85" z="0.75" angle="164.95" speed="10.67" type="passenger" length="4.50" width="1.80" height="1.50"/>
    <vehicle id="46_5" x="1015.02" y="998.95" z="0.75" angle="-148.51" speed="3.68" type="passenger" length="4.50" width="1.80" height="1.50"/>
    <vehicle id="46_6" x="989.23" y="998.63" z="0.75" angle="173.03" speed="11.01" type="passenger" length="4.50" width="1.80" height="1.50"/>
    <vehicle id="46_7" x="971.65" y="992.60" z="0.75" angle="-12.95" speed="12.77" type="passenger" length="4.50" width="1.80" height="1.50"/>
  </timestep>
  <timestep time="0.60">
    <vehicle id="46_10" x="1009.57" y="970.21" z="0.75" angle="-85.43" speed="0.00" type="passenger" length="4.50" width="1.80" height="1.50"/>
    <vehicle id="46_2" x="1009.62" y="962.83" z="0.75" angle="90.01" speed="0.10" type="passenger" length="4.50" width="1.80" height="1.50"/>
    <vehicle id="46_3" x="971.25" y="1000.11" z="0.75" angle="165.58" speed="10.87" type="passenger" length="4.50" width="1.80" height="1.50"/>
    <vehicle id="46_5" x="1014.68" y="998.80" z="0.75" angle="-150.57" speed="3.82" type="passenger" length="4.50" width="1.80" height="1.50"/>
    <vehicle id="46_6" x="988.14" y="998.76" z="0.75" angle="173.03" speed="10.92" type="passenger" length="4.50" width="1.80" height="1.50"/>
    <vehicle id="46_7" x="972.89" y="992.31" z="0.75" angle="-13.06" speed="12.69" type="passenger" length="4.50" width="1.80" height="1.50"/>
  </timestep>
  <timestep time="0.70">
    <vehicle id="46_10" x="1009.57" y="970.21" z="0.75" angle="-85.43" speed="0.00" type="passenger" length="4.50" width="1.80" height="1.50"/>
    <vehicle id="46_2" x="1009.62" y="962.83" z="0.75" angle="90.01" speed="0.10" type="passenger" length="4.50" width="1.80" height="1.50"/>
    <vehicle id="46_3" x="970.20" y="1000.37" z="0.75" angle="166.10" speed="11.06" type="passenger" length="4.50" width="1.80" height="1.50"/>
    <vehicle id="46_5" x="1014.32" y="998.66" z="0.75" angle="-152.69" speed="3.96" type="passenger" length="4.50" width="1.80" height="1.50"/>
    <vehicle id="46_6" x="987.06" y="998.89" z="0.75" angle="173.03" speed="10.83" type="passenger" length="4.50" width="1.80" height="1.50"/>
    <vehicle id="46_7" x="974.13" y="992.02" z="0.75" angle="-13.18" speed="12.60" type="passenger" length="4.50" width="1.80" height="1.50"/>
  </timestep>
  <timestep time="0.80">
    <vehicle id="46_10" x="1009.57" y="970.21" z="0.75" angle="-85.43" speed="0.00" type="passenger" length="4.50" width="1.80" height="1.50"/>
    <vehicle id="46_2" x="1009.62" y="962.83" z="0.75" angle="90.01" speed="0.10" type="passenger" length="4.50" width="1.80" height="1.50"/>
    <vehicle id="46_3" x="969.12" y="1000.62" z="0.75" angle="166.62" speed="11.25" type="passenger" length="4.50" width="1.80" height="1.50"/>
    <vehicle id="46_5" x="1013.95" y="998.53" z="0.75" angle="-154.81" speed="4.10" type="passenger" length="4.50" width="1.80" height="1.50"/>
    <vehicle id="46_6" x="985.98" y="999.02" z="0.75" angle="173.03" speed="10.75" type="passenger" length="4.50" width="1.80" height="1.50"/>
    <vehicle id="46_7" x="975.36" y="991.73" z="0.75" angle="-13.35" speed="12.51" type="passenger" length="4.50" width="1.80" height="1.50"/>
  </timestep>
  <timestep time="0.90">
    <vehicle id="46_10" x="1009.57" y="970.21" z="0.75" angle="-85.43" speed="0.00" type="passenger" length="4.50" width="1.80" height="1.50"/>
    <vehicle id="46_2" x="1009.62" y="962.83" z="0.75" angle="90.01" speed="0.10" type="passenger" length="4.50" width="1.80" height="1.50"/>
    <vehicle id="46_3" x="968.02" y="1000.87" z="0.75" angle="167.02" speed="11.43" type="passenger" length="4.50" width="1.80" height="1.50"/>
    <vehicle id="46_5" x="1013.56" y="998.41" z="0.75" angle="-156.93" speed="4.24" type="passenger" length="4.50" width="1.80" height="1.50"/>
    <vehicle id="46_6" x="984.92" y="999.15" z="0.75" angle="173.03" speed="10.67" type="passenger" length="4.50" width="1.80" height="1.50"/>
    <vehicle id="46_7" x="976.57" y="991.43" z="0.75" angle="-13.46" speed="12.41" type="passenger" length="4.50" width="1.80" height="1.50"/>
  </timestep>
  <timestep time="1.00">
    <vehicle id="46_10" x="1009.57" y="970.21" z="0.75" angle="-85.43" speed="0.00" type="passenger" length="4.50" width="1.80" height="1.50"/>
    <vehicle id="46_2" x="1009.62" y="962.83" z="0.75" angle="90.01" speed="0.10" type="passenger" length="4.50" width="1.80" height="1.50"/>
    <vehicle id="46_3" x="966.91" y="1001.12" z="0.75" angle="167.42" speed="11.61" type="passenger" length="4.50" width="1.80" height="1.50"/>
    <vehicle id="46_5" x="1013.15" y="998.29" z="0.75" angle="-159.05" speed="4.38" type="passenger" length="4.50" width="1.80" height="1.50"/>
    <vehicle id="46_6" x="983.86" y="999.28" z="0.75" angle="172.98" speed="10.59" type="passenger" length="4.50" width="1.80" height="1.50"/>
    <vehicle id="46_7" x="977.78" y="991.14" z="0.75" angle="-13.58" speed="12.31" type="passenger" length="4.50" width="1.80" height="1.50"/>
  </timestep>
  <timestep time="1.10">
    <vehicle id="46_10" x="1009.57" y="970.21" z="0.75" angle="-85.43" speed="0.00" type="passenger" length="4.50" width="1.80" height="1.50"/>
    <vehicle id="46_2" x="1009.62" y="962.83" z="0.75" angle="90.01" speed="0.10" type="passenger" length="4.50" width="1.80" height="1.50"/>
    <vehicle id="46_3" x="965.77" y="1001.36" z="0.75" angle="167.76" speed="11.78" type="passenger" length="4.50" width="1.80" height="1.50"/>
    <vehicle id="46_5" x="1012.73" y="998.18" z="0.75" angle="-161.12" speed="4.52" type="passenger" length="4.50" width="1.80" height="1.50"/>
    <vehicle id="46_6" x="982.81" y="999.42" z="0.75" angle="172.92" speed="10.52" type="passenger" length="4.50" width="1.80" height="1.50"/>
    <vehicle id="46_7" x="978.97" y="990.85" z="0.75" angle="-13.75" speed="12.19" type="passenger" length="4.50" width="1.80" height="1.50"/>
  </timestep>
  <timestep time="1.20">
    <vehicle id="46_10" x="1009.57" y="970.21" z="0.75" angle="-85.43" speed="0.00" type="passenger" length="4.50" width="1.80" height="1.50"/>
    <vehicle id="46_2" x="1009.62" y="962.83" z="0.75" angle="90.01" speed="0.10" type="passenger" length="4.50" width="1.80" height="1.50"/>
    <vehicle id="46_3" x="964.62" y="1001.60" z="0.75" angle="168.05" speed="11.95" type="passenger" length="4.50" width="1.80" height="1.50"/>
    <vehicle id="46_5" x="1012.28" y="998.09" z="0.75" angle="-163.12" speed="4.66" type="passenger" length="4.50" width="1.80" height="1.50"/>
    <vehicle id="46_6" x="981.76" y="999.55" z="0.75" angle="172.86" speed="10.45" type="passenger" length="4.50" width="1.80" height="1.50"/>
    <vehicle id="46_7" x="980.16" y="990.55" z="0.75" angle="-13.92" speed="12.07" type="passenger" length="4.50" width="1.80" height="1.50"/>
  </timestep>
  <timestep time="1.30">
    <vehicle id="46_10" x="1009.57" y="970.21" z="0.75" angle="-85.43" speed="0.00" type="passenger" length="4.50" width="1.80" height="1.50"/>
    <vehicle id="46_2" x="1009.62" y="962.83" z="0.75" angle="90.01" speed="0.10" type="passenger" length="4.50" width="1.80" height="1.50"/>
    <vehicle id="46_3" x="963.45" y="1001.84" z="0.75" angle="168.34" speed="12.12" type="passenger" length="4.50" width="1.80" height="1.50"/>
    <vehicle id="46_5" x="1011.82" y="998.00" z="0.75" angle="-165.07" speed="4.80" type="passenger" length="4.50" width="1.80" height="1.50"/>
    <vehicle id="46_6" x="980.73" y="999.68" z="0.75" angle="172.80" speed="10.38" type="passenger" length="4.50" width="1.80" height="1.50"/>
    <vehicle id="46_7" x="981.33" y="990.26" z="0.75" angle="-14.09" speed="11.95" type="passenger" length="4.50" width="1.80" height="1.50"/>
  </timestep>
  <timestep time="1.40">
    <vehicle id="46_10" x="1009.57" y="970.21" z="0.75" angle="-85.43" speed="0.00" type="passenger" length="4.50" width="1.80" height="1.50"/>
    <vehicle id="46_2" x="1009.62" y="962.83" z="0.75" angle="90.01" speed="0.10" type="passenger" length="4.50" width="1.80" height="1.50"/>
    <vehicle id="46_3" x="962.26" y="1002.08" z="0.75" angle="168.62" speed="12.29" type="passenger" length="4.50" width="1.80" height="1.50"/>
    <vehicle id="46_5" x="1011.35" y="997.92" z="0.75" angle="-166.90" speed="4.94" type="passenger" length="4.50" width="1.80" height="1.50"/>
    <vehicle id="46_6" x="979.70" y="999.81" z="0.75" angle="172.75" speed="10.32" type="passenger" length="4.50" width="1.80" height="1.50"/>
    <vehicle id="46_7" x="982.48" y="989.96" z="0.75" angle="-14.32" speed="11.82" type="passenger" length="4.50" width="1.80" height="1.50"/>
  </timestep>
  <timestep time="1.50">
    <vehicle id="46_10" x="1009.57" y="970.21" z="0.75" angle="-85.43" speed="0.00" type="passenger" length="4.50" width="1.80" height="1.50"/>
    <vehicle id="46_2" x="1009.62" y="962.83" z="0.75" angle="90.01" speed="0.10" type="passenger" length="4.50" width="1.80" height="1.50"/>
    <vehicle id="46_3" x="961.05" y="1002.32" z="0.75" angle="168.79" speed="12.44" type="passenger" length="4.50" width="1.80" height="1.50"/>
    <vehicle id="46_5" x="1010.86" y="997.86" z="0.75" angle="-168.68" speed="5.08" type="passenger" length="4.50" width="1.80" height="1.50"/>
    <vehicle id="46_6" x="978.67" y="999.94" z="0.75" angle="172.69" speed="10.26" type="passenger" length="4.50" width="1.80" height="1.50"/>
    <vehicle id="46_7" x="983.63" y="989.66" z="0.75" angle="-14.55" speed="11.68" type="passenger" length="4.50" width="1.80" height="1.50"/>
  </timestep>
  <timestep time="1.60">
    <vehicle id="46_10" x="1009.57" y="970.21" z="0.75" angle="-85.43" speed="0.00" type="passenger" length="4.50" width="1.80" height="1.50"/>
    <vehicle id="46_2" x="1009.62" y="962.83" z="0.75" angle="90.01" speed="0.10" type="passenger" length="4.50" width="1.80" height="1.50"/>
    <vehicle id="46_3" x="959.83" y="1002.55" z="0.75" angle="169.02" speed="12.60" type="passenger" length="4.50" width="1.80" height="1.50"/>
    <vehicle id="46_5" x="1010.35" y="997.80" z="0.75" angle="-170.34" speed="5.22" type="passenger" length="4.50" width="1.80" height="1.50"/>
    <vehicle id="46_6" x="977.65" y="1000.07" z="0.75" angle="172.63" speed="10.21" type="passenger" length="4.50" width="1.80" height="1.50"/>
    <vehicle id="46_7" x="984.76" y="989.37" z="0.75" angle="-14.78" speed="11.54" type="passenger" length="4.50" width="1.80" height="1.50"/>
  </timestep>
  <timestep time="1.70">
    <vehicle id="46_10" x="1009.57" y="970.21" z="0.75" angle="-85.43" speed="0.00" type="passenger" length="4.50" width="1.80" height="1.50"/>
    <vehicle id="46_2" x="1009.62" y="962.83" z="0.75" angle="90.01" speed="0.10" type="passenger" length="4.50" width="1.80" height="1.50"/>
    <vehicle id="46_3" x="958.59" y="1002.79" z="0.75" angle="169.19" speed="12.75" type="passenger" length="4.50" width="1.80" height="1.50"/>
    <vehicle id="46_5" x="1009.83" y="997.75" z="0.75" angle="-171.94" speed="5.36" type="passenger" length="4.50" width="1.80" height="1.50"/>
    <vehicle id="46_6" x="976.64" y="1000.21" z="0.75" angle="172.52" speed="10.16" type="passenger" length="4.50" width="1.80" height="1.50"/>
    <vehicle id="46_7" x="985.87" y="989.06" z="0.75" angle="-15.07" speed="11.40" type="passenger" length="4.50" width="1.80" height="1.50"/>
  </timestep>
  <timestep time="1.80">
    <vehicle id="46_10" x="1009.57" y="970.21" z="0.75" angle="-85.43" speed="0.00" type="passenger" length="4.50" width="1.80" height="1.50"/>
    <vehicle id="46_2" x="1009.62" y="962.83" z="0.75" angle="90.01" speed="0.10" type="passenger" length="4.50" width="1.80" height="1.50"/>
    <vehicle id="46_3" x="957.34" y="1003.02" z="0.75" angle="169.37" speed="12.88" type="passenger" length="4.50" width="1.80" height="1.50"/>
    <vehicle id="46_5" x="1009.29" y="997.71" z="0.75" angle="-173.38" speed="5.50" type="passenger" length="4.50" width="1.80" height="1.50"/>
    <vehicle id="46_6" x="975.63" y="1000.34" z="0.75" angle="172.46" speed="10.12" type="passenger" length="4.50" width="1.80" height="1.50"/>
    <vehicle id="46_7" x="986.97" y="988.76" z="0.75" angle="-15.36" speed="11.25" type="passenger" length="4.50" width="1.80" height="1.50"/>
  </timestep>
  <timestep time="1.90">
    <vehicle id="46_1" x="969.95" y="1006.41" z="0.75" angle="-10.30" speed="2.77" type="passenger" length="4.50" width="1.80" height="1.50"/>
    <vehicle id="46_10" x="1009.57" y="970.21" z="0.75" angle="-85.43" speed="0.00" type="passenger" length="4.50" width="1.80" height="1.50"/>
    <vehicle id="46_2" x="1009.62" y="962.83" z="0.75" angle="90.01" speed="0.10" type="passenger" length="4.50" width="1.80" height="1.50"/>
    <vehicle id="46_3" x="956.07" y="1003.25" z="0.75" angle="169.54" speed="13.02" type="passenger" length="4.50" width="1.80" height="1.50"/>
    <vehicle id="46_5" x="1008.74" y="997.69" z="0.75" angle="-174.75" speed="5.63" type="passenger" length="4.50" width="1.80" height="1.50"/>
    <vehicle id="46_6" x="974.63" y="1000.47" z="0.75" angle="172.40" speed="10.08" type="passenger" length="4.50" width="1.80" height="1.50"/>
    <vehicle id="46_7" x="988.05" y="988.45" z="0.75" angle="-15.64" speed="11.10" type="passenger" length="4.50" width="1.80" height="1.50"/>
  </timestep>
  <timestep time="2.00">
    <vehicle id="46_1" x="970.22" y="1006.36" z="0.75" angle="-10.01" speed="2.79" type="passenger" length="4.50" width="1.80" height="1.50"/>
    <vehicle id="46_10" x="1009.57" y="970.21" z="0.75" angle="-85.43" speed="0.00" type="passenger" length="4.50" width="1.80" height="1.50"/>
    <vehicle id="46_2" x="1009.62" y="962.83" z="0.75" angle="90.01" speed="0.10" type="passenger" length="4.50" width="1.80" height="1.50"/>
    <vehicle id="46_3" x="954.79" y="1003.49" z="0.75" angle="169.71" speed="13.14" type="passenger" length="4.50" width="1.80" height="1.50"/>
    <vehicle id="46_5" x="1008.18" y="997.67" z="0.75" angle="-176.01" speed="5.77" type="passenger" length="4.50" width="1.80" height="1.50"/>
    <vehicle id="46_6" x="973.63" y="1000.61" z="0.75" angle="172.35" speed="10.05" type="passenger" length="4.50" width="1.80" height="1.50"/>
    <vehicle id="46_7" x="989.12" y="988.14" z="0.75" angle="-15.99" speed="10.95" type="passenger" length="4.50" width="1.80" height="1.50"/>
  </timestep>
  <timestep time="2.10">
    <vehicle id="46_1" x="970.50" y="1006.31" z="0.75" angle="-9.73" speed="2.80" type="passenger" length="4.50" width="1.80" height="1.50"/>
    <vehicle id="46_10" x="1009.57" y="970.21" z="0.75" angle="-85.43" speed="0.00" type="passenger" length="4.50" width="1.80" height="1.50"/>
    <vehicle id="46_2" x="1009.62" y="962.83" z="0.75" angle="90.01" speed="0.10" type="passenger" length="4.50" width="1.80" height="1.50"/>
    <vehicle id="46_3" x="953.50" y="1003.72" z="0.75" angle="169.82" speed="13.25" type="passenger" length="4.50" width="1.80" height="1.50"/>
    <vehicle id="46_5" x="1007.60" y="997.66" z="0.75" angle="-177.10" speed="5.90" type="passenger" length="4.50" width="1.80" height="1.50"/>
    <vehicle id="46_6" x="972.64" y="1000.74" z="0.75" angle="172.29" speed="10.02" type="passenger" length="4.50" width="1.80" height="1.50"/>
    <vehicle id="46_7" x="990.17" y="987.83" z="0.75" angle="-16.39" speed="10.80" type="passenger" length="4.50" width="1.80" height="1.50"/>
  </timestep>
  <timestep time="2.20">
    <vehicle id="46_1" x="970.77" y="1006.27" z="0.75" angle="-9.47" speed="2.82" type="passenger" length="4.50" width="1.80" height="1.50"/>
    <vehicle id="46_10" x="1009.57" y="970.21" z="0.75" angle="-85.43" speed="0.00" type="passenger" length="4.50" width="1.80" height="1.50"/>
    <vehicle id="46_2" x="1009.62" y="962.83" z="0.75" angle="90.01" speed="0.10" type="passenger" length="4.50" width="1.80" height="1.50"/>
    <vehicle id="46_3" x="952.19" y="1003.95" z="0.75" angle="169.94" speed="13.35" type="passenger" length="4.50" width="1.80" height="1.50"/>
    <vehicle id="46_5" x="1007.01" y="997.65" z="0.75" angle="-178.13" speed="6.03" type="passenger" length="4.50" width="1.80" height="1.50"/>
    <vehicle id="46_6" x="971.64" y="1000.88" z="0.75" angle="172.23" speed="10.00" type="passenger" length="4.50" width="1.80" height="1.50"/>
    <vehicle id="46_7" x="991.20" y="987.52" z="0.75" angle="-16.79" speed="10.65" type="passenger" length="4.50" width="1.80" height="1.50"/>
  </timestep>
  <timestep time="2.30">
    <vehicle id="46_1" x="971.05" y="1006.22" z="0.75" angle="-9.24" speed="2.82" type="passenger" length="4.50" width="1.80" height="1.50"/>
    <vehicle id="46_10" x="1009.57" y="970.21" z="0.75" angle="-85.43" speed="0.00" type="passenger" length="4.50" width="1.80" height="1.50"/>
    <vehicle id="46_2" x="1009.62" y="962.83" z="0.75" angle="90.01" speed="0.10" type="passenger" length="4.50" width="1.80" height="1.50"/>
    <vehicle id="46_3" x="950.88" y="1004.18" z="0.75" angle="170.05" speed="13.44" type="passenger" length="4.50" width="1.80" height="1.50"/>
    <vehicle id="46_5" x="1006.40" y="997.66" z="0.75" angle="-179.05" speed="6.15" type="passenger" length="4.50" width="1.80" height="1.50"/>
    <vehicle id="46_6" x="970.65" y="1001.01" z="0.75" angle="172.17" speed="9.98" type="passenger" length="4.50" width="1.80" height="1.50"/>
    <vehicle id="46_7" x="992.22" y="987.20" z="0.75" angle="-17.25" speed="10.49" type="passenger" length="4.50" width="1.80" height="1.50"/>
  </timestep>
  <timestep time="2.40">
    <vehicle id="46_1" x="971.33" y="1006.17" z="0.75" angle="-9.04" speed="2.82" type="passenger" length="4.50" width="1.80" height="1.50"/>
    <vehicle id="46_10" x="1009.57" y="970.21" z="0.75" angle="-85.43" speed="0.00" type="passenger" length="4.50" width="1.80" height="1.50"/>
    <vehicle id="46_2" x="1009.62" y="962.83" z="0.75" angle="90.01" speed="0.10" type="passenger" length="4.50" width="1.80" height="1.50"/>
    <vehicle id="46_3" x="949.55" y="1004.41" z="0.75" angle="170.17" speed="13.52" type="passenger" length="4.50" width="1.80" height="1.50"/>
    <vehicle id="46_5" x="1005.79" y="997.67" z="0.75" angle="-179.91" speed="6.27" type="passenger" length="4.50" width="1.80" height="1.50"/>
    <vehicle id="46_6" x="969.67" y="1001.15" z="0.75" angle="172.12" speed="9.98" type="passenger" length="4.50" width="1.80" height="1.50"/>
    <vehicle id="46_7" x="993.22" y="986.87" z="0.75" angle="-17.70" speed="10.34" type="passenger" length="4.50" width="1.80" height="1.50"/>
  </timestep>
  <timestep time="2.50">
    <vehicle id="46_1" x="971.61" y="1006.13" z="0.75" angle="-8.83" speed="2.82" type="passenger" length="4.50" width="1.80" height="1.50"/>
    <vehicle id="46_10" x="1009.57" y="970.21" z="0.75" angle="-85.43" speed="0.00" type="passenger" length="4.50" width="1.80" height="1.50"/>
    <vehicle id="46_2" x="1009.62" y="962.83" z="0.75" angle="90.01" speed="0.10" type="passenger" length="4.50" width="1.80" height="1.50"/>
    <vehicle id="46_3" x="948.22" y="1004.64" z="0.75" angle="170.23" speed="13.58" type="passenger" length="4.50" width="1.80" height="1.50"/>
    <vehicle id="46_5" x="1005.16" y="997.69" z="0.75" angle="179.34" speed="6.39" type="passenger" length="4.50" width="1.80" height="1.50"/>
    <vehicle id="46_6" x="968.68" y="1001.29" z="0.75" angle="172.12" speed="9.98" type="passenger" length="4.50" width="1.80" height="1.50"/>
    <vehicle id="46_7" x="994.20" y="986.55" z="0.75" angle="-18.22" speed="10.19" type="passenger" length="4.50" width="1.80" height="1.50"/>
  </timestep>
  <timestep time="2.60">
    <vehicle id="46_1" x="971.89" y="1006.09" z="0.75" angle="-8.56" speed="2.81" type="passenger" length="4.50" width="1.80" height="1.50"/>
    <vehicle id="46_10" x="1009.57" y="970.21" z="0.75" angle="-85.43" speed="0.00" type="passenger" length="4.50" width="1.80" height="1.50"/>
    <vehicle id="46_2" x="1009.62" y="962.83" z="0.75" angle="90.01" speed="0.10" type="passenger" length="4.50" width="1.80" height="1.50"/>
    <vehicle id="46_3" x="946.88" y="1004.87" z="0.75" angle="170.28" speed="13.64" type="passenger" length="4.50" width="1.80" height="1.50"/>
    <vehicle id="46_5" x="1004.52" y="997.72" z="0.75" angle="178.71" speed="6.51" type="passenger" length="4.50" width="1.80" height="1.50"/>
    <vehicle id="46_6" x="967.69" y="1001.43" z="0.75" angle="172.06" speed="9.99" type="passenger" length="4.50" width="1.80" height="1.50"/>
    <vehicle id="46_7" x="995.16" y="986.21" z="0.75" angle="-18.74" speed="10.04" type="passenger" length="4.50" width="1.80" height="1.50"/>
    <vehicle id="46_8" x="938.75" y="1001.28" z="0.75" angle="-9.00" speed="9.79" type="passenger" length="4.50" width="1.80" height="1.50"/>
  </timestep>
  <timestep time="2.70">
    <vehicle id="46_1" x="972.16" y="1006.05" z="0.75" angle="-8.22" speed="2.80" type="passenger" length="4.50" width="1.80" height="1.50"/>
    <vehicle id="46_10" x="1009.57" y="970.21" z="0.75" angle="-85.43" speed="0.00" type="passenger" length="4.50" width="1.80" height="1.50"/>
    <vehicle id="46_2" x="1009.62" y="962.83" z="0.75" angle="90.01" speed="0.10" type="passenger" length="4.50" width="1.80" height="1.50"/>
    <vehicle id="46_3" x="945.54" y="1005.09" z="0.75" angle="170.34" speed="13.67" type="passenger" length="4.50" width="1.80" height="1.50"/>
    <vehicle id="46_5" x="1003.87" y="997.75" z="0.75" angle="178.08" speed="6.62" type="passenger" length="4.50" width="1.80" height="1.50"/>
    <vehicle id="46_6" x="966.70" y="1001.57" z="0.75" angle="172.00" speed="10.00" type="passenger" length="4.50" width="1.80" height="1.50"/>
    <vehicle id="46_7" x="996.11" y="985.87" z="0.75" angle="-19.37" speed="9.90" type="passenger" length="4.50" width="1.80" height="1.50"/>
    <vehicle id="46_8" x="939.72" y="1001.13" z="0.75" angle="-9.05" speed="9.79" type="passenger" length="4.50" width="1.80" height="1.50"/>
  </timestep>
  <timestep time="2.80">
    <vehicle id="46_1" x="972.44" y="1006.01" z="0.75" angle="-7.81" speed="2.78" type="passenger" length="4.50" width="1.80" height="1.50"/>
    <vehicle id="46_10" x="1009.57" y="970.21" z="0.75" angle="-85.43" speed="0.00" type="passenger" length="4.50" width="1.80" height="1.50"/>
    <vehicle id="46_2" x="1009.62" y="962.83" z="0.75" angle="90.01" speed="0.10" type="passenger" length="4.50" width="1.80" height="1.50"/>
    <vehicle id="46_3" x="944.19" y="1005.32" z="0.75" angle="170.40" speed="13.70" type="passenger" length="4.50" width="1.80" height="1.50"/>
    <vehicle id="46_5" x="1003.21" y="997.78" z="0.75" angle="177.50" speed="6.73" type="passenger" length="4.50" width="1.80" height="1.50"/>
    <vehicle id="46_6" x="965.71" y="1001.71" z="0.75" angle="171.94" speed="10.03" type="passenger" length="4.50" width="1.80" height="1.50"/>
    <vehicle id="46_7" x="997.03" y="985.53" z="0.75" angle="-20.00" speed="9.75" type="passenger" length="4.50" width="1.80" height="1.50"/>
    <vehicle id="46_8" x="940.69" y="1000.98" z="0.75" angle="-9.05" speed="9.78" type="passenger" length="4.50" width="1.80" height="1.50"/>
  </timestep>
  <timestep time="2.90">
    <vehicle id="46_1" x="972.72" y="1005.97" z="0.75" angle="-7.34" speed="2.76" type="passenger" length="4.50" width="1.80" height="1.50"/>
    <vehicle id="46_10" x="1009.57" y="970.21" z="0.75" angle="-85.43" speed="0.00" type="passenger" length="4.50" width="1.80" height="1.50"/>
    <vehicle id="46_2" x="1009.62" y="962.83" z="0.75" angle="90.01" speed="0.10" type="passenger" length="4.50" width="1.80" height="1.50"/>
    <vehicle id="46_3" x="942.84" y="1005.55" z="0.75" angle="170.45" speed="13.71" type="passenger" length="4.50" width="1.80" height="1.50"/>
    <vehicle id="46_5" x="1002.53" y="997.83" z="0.75" angle="176.99" speed="6.84" type="passenger" length="4.50" width="1.80" height="1.50"/>
    <vehicle id="46_6" x="964.72" y="1001.85" z="0.75" angle="171.94" speed="10.06" type="passenger" length="4.50" width="1.80" height="1.50"/>
    <vehicle id="46_7" x="997.94" y="985.18" z="0.75" angle="-20.68" speed="9.61" type="passenger" length="4.50" width="1.80" height="1.50"/>
    <vehicle id="46_8" x="941.65" y="1000.82" z="0.75" angle="-9.11" speed="9.76" type="passenger" length="4.50" width="1.80" height="1.50"/>
    <vehicle id="46_9" x="1035.58" y="991.77" z="0.75" angle="170.28" speed="9.47" type="passenger" length="4.50" width="1.80" height="1.50"/>
  </timestep>
  <timestep time="3.00">
    <vehicle id="46_1" x="972.99" y="1005.94" z="0.75" angle="-6.89" speed="2.74" type="passenger" length="4.50" width="1.80" height="1.50"/>