<?xml version="1.0" ?>
<fcd-export>
  <timestep time="0.00">
    <vehicle id="4_1" x="980.40" y="983.37" z="0.75" angle="283.57" speed="1.40" type="passenger" length="4.50" width="1.80" height="1.50"/>
    <vehicle id="4_10" x="978.63" y="1000.73" z="0.75" angle="277.04" speed="11.18" type="passenger" length="4.50" width="1.80" height="1.50"/>
    <vehicle id="4_11" x="988.51" y="996.64" z="0.75" angle="280.50" speed="9.72" type="passenger" length="4.50" width="1.80" height="1.50"/>
    <vehicle id="4_12" x="1026.19" y="1016.13" z="0.75" angle="195.37" speed="0.00" type="passenger" length="4.50" width="1.80" height="1.50"/>
    <vehicle id="4_13" x="977.15" y="990.36" z="0.75" angle="112.04" speed="7.11" type="passenger" length="4.50" width="1.80" height="1.50"/>
    <vehicle id="4_14" x="1029.74" y="988.67" z="0.75" angle="277.28" speed="0.52" type="passenger" length="4.50" width="1.80" height="1.50"/>
    <vehicle id="4_15" x="1020.59" y="994.53" z="0.75" angle="280.43" speed="9.15" type="passenger" length="4.50" width="1.80" height="1.50"/>
    <vehicle id="4_2" x="1017.57" y="1000.95" z="0.75" angle="221.21" speed="0.00" type="passenger" length="4.50" width="1.80" height="1.50"/>
    <vehicle id="4_3" x="991.54" y="1005.60" z="0.75" angle="192.85" speed="0.00" type="passenger" length="4.50" width="1.80" height="1.50"/>
    <vehicle id="4_4" x="994.10" y="1011.86" z="0.75" angle="200.41" speed="0.00" type="passenger" length="4.50" width="1.80" height="1.50"/>
    <vehicle id="4_5" x="1000.40" y="981.30" z="0.75" angle="49.54" speed="3.11" type="passenger" length="4.50" width="1.80" height="1.50"/>
    <vehicle id="4_6" x="1020.97" y="1005.61" z="0.75" angle="209.52" speed="0.00" type="passenger" length="4.50" width="1.80" height="1.50"/>
    <vehicle id="4_7" x="1023.58" y="1010.86" z="0.75" angle="204.65" speed="0.00" type="passenger" length="4.50" width="1.80" height="1.50"/>
    <vehicle id="4_8" x="1016.15" y="987.05" z="0.75" angle="99.93" speed="10.56" type="passenger" length="4.50" width="1.80" height="1.50"/>
    <vehicle id="4_9" x="966.64" y="1000.57" z="0.75" angle="280.51" speed="12.56" type="passenger" length="4.50" width="1.80" height="1.50"/>
  </timestep>
  <timestep time="0.10">
    <vehicle id="4_1" x="980.26" y="983.40" z="0.75" angle="281.84" speed="1.40" type="passenger" length="4.50" width="1.80" height="1.50"/>
    <vehicle id="4_10" x="977.52" y="1000.87" z="0.75" angle="276.98" speed="11.26" type="passenger" length="4.50" width="1.80" height="1.50"/>
    <vehicle id="4_11" x="987.55" y="996.82" z="0.75" angle="280.51" speed="9.75" type="passenger" length="4.50" width="1.80" height="1.50"/>
    <vehicle id="4_12" x="1026.19" y="1016.13" z="0.75" angle="195.37" speed="0.00" type="passenger" length="4.50" width="1.80" height="1.50"/>
    <vehicle id="4_13" x="977.79" y="990.05" z="0.75" angle="113.86" speed="7.04" type="passenger" length="4.50" width="1.80" height="1.50"/>
    <vehicle id="4_14" x="1029.68" y="988.68" z="0.75" angle="277.26" speed="0.43" type="passenger" length="4.50" width="1.80" height="1.50"/>
    <vehicle id="4_15" x="1019.69" y="994.70" z="0.75" angle="280.67" speed="9.02" type="passenger" length="4.50" width="1.80" height="1.50"/>
    <vehicle id="4_2" x="1017.57" y="1000.95" z="0.75" angle="221.21" speed="0.00" type="passenger" length="4.50" width="1.80" height="1.50"/>
    <vehicle id="4_3" x="991.54" y="1005.60" z="0.75" angle="192.85" speed="0.00" type="passenger" length="4.50" width="1.80" height="1.50"/>
    <vehicle id="4_4" x="994.10" y="1011.86" z="0.75" angle="200.41" speed="0.00" type="passenger" length="4.50" width="1.80" height="1.50"/>
    <vehicle id="4_5" x="1000.67" y="981.46" z="0.75" angle="51.16" speed="3.17" type="passenger" length="4.50" width="1.80" height="1.50"/>
    <vehicle id="4_6" x="1020.97" y="1005.61" z="0.75" angle="209.52" speed="0.00" type="passenger" length="4.50" width="1.80" height="1.50"/>
    <vehicle id="4_7" x="1023.58" y="1010.86" z="0.75" angle="204.65" speed="0.00" type="passenger" length="4.50" width="1.80" height="1.50"/>
    <vehicle id="4_8" x="1017.19" y="986.87" z="0.75" angle="99.85" speed="10.53" type="passenger" length="4.50" width="1.80" height="1.50"/>
    <vehicle id="4_9" x="965.41" y="1000.80" z="0.75" angle="280.45" speed="12.55" type="passenger" length="4.50" width="1.80" height="1.50"/>
  </timestep>
  <timestep time="0.20">
    <vehicle id="4_1" x="980.12" y="983.43" z="0.75" angle="280.25" speed="1.40" type="passenger" length="4.50" width="1.80" height="1.50"/>
    <vehicle id="4_10" x="976.40" y="1001.01" z="0.75" angle="276.92" speed="11.33" type="passenger" length="4.50" width="1.80" height="1.50"/>
    <vehicle id="4_11" x="986.60" y="997.00" z="0.75" angle="280.52" speed="9.79" type="passenger" length="4.50" width="1.80" height="1.50"/>
    <vehicle id="4_12" x="1026.19" y="1016.13" z="0.75" angle="195.37" speed="0.00" type="passenger" length="4.50" width="1.80" height="1.50"/>
    <vehicle id="4_13" x="978.41" y="989.72" z="0.75" angle="115.88" speed="6.98" type="passenger" length="4.50" width="1.80" height="1.50"/>
    <vehicle id="4_14" x="1029.64" y="988.68" z="0.75" angle="277.06" speed="0.34" type="passenger" length="4.50" width="1.80" height="1.50"/>
    <vehicle id="4_15" x="1018.81" y="994.87" z="0.75" angle="280.99" speed="8.88" type="passenger" length="4.50" width="1.80" height="1.50"/>
    <vehicle id="4_2" x="1017.57" y="1000.95" z="0.75" angle="221.21" speed="0.00" type="passenger" length="4.50" width="1.80" height="1.50"/>
    <vehicle id="4_3" x="991.54" y="1005.60" z="0.75" angle="192.85" speed="0.00" type="passenger" length="4.50" width="1.80" height="1.50"/>
    <vehicle id="4_4" x="994.10" y="1011.86" z="0.75" angle="200.41" speed="0.00" type="passenger" length="4.50" width="1.80" height="1.50"/>
    <vehicle id="4_5" x="1000.95" y="981.61" z="0.75" angle="52.80" speed="3.24" type="passenger" length="4.50" width="1.80" height="1.50"/>
    <vehicle id="4_6" x="1020.97" y="1005.61" z="0.75" angle="209.52" speed="0.00" type="passenger" length="4.50" width="1.80" height="1.50"/>
    <vehicle id="4_7" x="1023.58" y="1010.86" z="0.75" angle="204.65" speed="0.00" type="passenger" length="4.50" width="1.80" height="1.50"/>
    <vehicle id="4_8" x="1018.23" y="986.69" z="0.75" angle="99.76" speed="10.50" type="passenger" length="4.50" width="1.80" height="1.50"/>
    <vehicle id="4_9" x="964.17" y="1001.02" z="0.75" angle="280.39" speed="12.54" type="passenger" length="4.50" width="1.80" height="1.50"/>
  </timestep>
  <timestep time="0.30">
    <vehicle id="4_1" x="979.98" y="983.45" z="0.75" angle="278.89" speed="1.40" type="passenger" length="4.50" width="1.80" height="1.50"/>
    <vehicle id="4_10" x="975.28" y="1001.14" z="0.75" angle="276.86" speed="11.39" type="passenger" length="4.50" width="1.80" height="1.50"/>
    <vehicle id="4_11" x="985.63" y="997.18" z="0.75" angle="280.52" speed="9.82" type="passenger" length="4.50" width="1.80" height="1.50"/>
    <vehicle id="4_12" x="1026.19" y="1016.13" z="0.75" angle="195.37" speed="0.00" type="passenger" length="4.50" width="1.80" height="1.50"/>
    <vehicle id="4_13" x="979.02" y="989.37" z="0.75" angle="118.06" speed="6.94" type="passenger" length="4.50" width="1.80" height="1.50"/>
    <vehicle id="4_14" x="1029.61" y="988.68" z="0.75" angle="276.99" speed="0.26" type="passenger" length="4.50" width="1.80" height="1.50"/>
    <vehicle id="4_15" x="1017.94" y="995.05" z="0.75" angle="281.41" speed="8.74" type="passenger" length="4.50" width="1.80" height="1.50"/>
    <vehicle id="4_2" x="1017.55" y="1000.93" z="0.75" angle="221.29" speed="0.15" type="passenger" length="4.50" width="1.80" height="1.50"/>
    <vehicle id="4_3" x="991.54" y="1005.60" z="0.75" angle="192.85" speed="0.00" type="passenger" length="4.50" width="1.80" height="1.50"/>
    <vehicle id="4_4" x="994.10" y="1011.86" z="0.75" angle="200.41" speed="0.00" type="passenger" length="4.50" width="1.80" height="1.50"/>
    <vehicle id="4_5" x="1001.24" y="981.76" z="0.75" angle="54.44" speed="3.31" type="passenger" length="4.50" width="1.80" height="1.50"/>
    <vehicle id="4_6" x="1020.97" y="1005.61" z="0.75" angle="209.52" speed="0.00" type="passenger" length="4.50" width="1.80" height="1.50"/>
    <vehicle id="4_7" x="1023.58" y="1010.86" z="0.75" angle="204.65" speed="0.00" type="passenger" length="4.50" width="1.80" height="1.50"/>
    <vehicle id="4_8" x="1019.27" y="986.52" z="0.75" angle="99.69" speed="10.47" type="passenger" length="4.50" width="1.80" height="1.50"/>
    <vehicle id="4_9" x="962.94" y="1001.25" z="0.75" angle="280.34" speed="12.53" type="passenger" length="4.50" width="1.80" height="1.50"/>
  </timestep>
  <timestep time="0.40">
    <vehicle id="4_1" x="979.84" y="983.47" z="0.75" angle="277.92" speed="1.41" type="passenger" length="4.50" width="1.80" height="1.50"/>
    <vehicle id="4_10" x="974.15" y="1001.28" z="0.75" angle="276.82" speed="11.44" type="passenger" length="4.50" width="1.80" height="1.50"/>
    <vehicle id="4_11" x="984.67" y="997.36" z="0.75" angle="280.52" speed="9.86" type="passenger" length="4.50" width="1.80" height="1.50"/>
    <vehicle id="4_12" x="1026.19" y="1016.13" z="0.75" angle="195.37" speed="0.00" type="passenger" length="4.50" width="1.80" height="1.50"/>
    <vehicle id="4_13" x="979.61" y="988.99" z="0.75" angle="120.41" speed="6.93" type="passenger" length="4.50" width="1.80" height="1.50"/>
    <vehicle id="4_14" x="1029.58" y="988.68" z="0.75" angle="276.87" speed="0.19" type="passenger" length="4.50" width="1.80" height="1.50"/>
    <vehicle id="4_15" x="1017.09" y="995.24" z="0.75" angle="281.92" speed="8.59" type="passenger" length="4.50" width="1.80" height="1.50"/>
    <vehicle id="4_2" x="1017.54" y="1000.92" z="0.75" angle="221.05" speed="0.19" type="passenger" length="4.50" width="1.80" height="1.50"/>
    <vehicle id="4_3" x="991.54" y="1005.60" z="0.75" angle="192.85" speed="0.00" type="passenger" length="4.50" width="1.80" height="1.50"/>
    <vehicle id="4_4" x="994.10" y="1011.86" z="0.75" angle="200.41" speed="0.00" type="passenger" length="4.50" width="1.80" height="1.50"/>
    <vehicle id="4_5" x="1001.53" y="981.91" z="0.75" angle="56.12" speed="3.38" type="passenger" length="4.50" width="1.80" height="1.50"/>
    <vehicle id="4_6" x="1020.97" y="1005.61" z="0.75" angle="209.52" speed="0.00" type="passenger" length="4.50" width="1.80" height="1.50"/>
    <vehicle id="4_7" x="1023.58" y="1010.86" z="0.75" angle="204.65" speed="0.00" type="passenger" length="4.50" width="1.80" height="1.50"/>
    <vehicle id="4_8" x="1020.30" y="986.34" z="0.75" angle="99.62" speed="10.44" type="passenger" length="4.50" width="1.80" height="1.50"/>
    <vehicle id="4_9" x="961.71" y="1001.47" z="0.75" angle="280.29" speed="12.52" type="passenger" length="4.50" width="1.80" height="1.50"/>
  </timestep>
  <timestep time="0.50">
    <vehicle id="4_1" x="979.70" y="983.49" z="0.75" angle="277.34" speed="1.42" type="passenger" length="4.50" width="1.80" height="1.50"/>
    <vehicle id="4_10" x="973.01" y="1001.41" z="0.75" angle="276.76" speed="11.48" type="passenger" length="4.50" width="1.80" height="1.50"/>
    <vehicle id="4_11" x="983.70" y="997.54" z="0.75" angle="280.52" speed="9.89" type="passenger" length="4.50" width="1.80" height="1.50"/>
    <vehicle id="4_12" x="1026.19" y="1016.13" z="0.75" angle="195.37" speed="0.00" type="passenger" length="4.50" width="1.80" height="1.50"/>
    <vehicle id="4_13" x="980.17" y="988.59" z="0.75" angle="122.89" speed="6.94" type="passenger" length="4.50" width="1.80" height="1.50"/>
    <vehicle id="4_14" x="1029.56" y="988.68" z="0.75" angle="277.07" speed="0.13" type="passenger" length="4.50" width="1.80" height="1.50"/>
    <vehicle id="4_15" x="1016.25" y="995.43" z="0.75" angle="282.55" speed="8.45" type="passenger" length="4.50" width="1.80" height="1.50"/>
    <vehicle id="4_2" x="1017.52" y="1000.91" z="0.75" angle="221.25" speed="0.24" type="passenger" length="4.50" width="1.80" height="1.50"/>
    <vehicle id="4_3" x="991.54" y="1005.60" z="0.75" angle="192.85" speed="0.00" type="passenger" length="4.50" width="1.80" height="1.50"/>
    <vehicle id="4_4" x="994.10" y="1011.86" z="0.75" angle="200.41" speed="0.00" type="passenger" length="4.50" width="1.80" height="1.50"/>
    <vehicle id="4_5" x="1001.84" y="982.05" z="0.75" angle="57.80" speed="3.46" type="passenger" length="4.50" width="1.80" height="1.50"/>
    <vehicle id="4_6" x="1020.97" y="1005.61" z="0.75" angle="209.52" speed="0.00" type="passenger" length="4.50" width="1.80" height="1.50"/>
    <vehicle id="4_7" x="1023.58" y="1010.86" z="0.75" angle="204.65" speed="0.00" type="passenger" length="4.50" width="1.80" height="1.50"/>
    <vehicle id="4_8" x="1021.33" y="986.17" z="0.75" angle="99.57" speed="10.40" type="passenger" length="4.50" width="1.80" height="1.50"/>
    <vehicle id="4_9" x="960.47" y="1001.70" z="0.75" angle="280.25" speed="12.51" type="passenger" length="4.50" width="1.80" height="1.50"/>
  </timestep>
  <timestep time="0.60">
    <vehicle id="4_1" x="979.56" y="983.51" z="0.75" angle="276.98" speed="1.43" type="passenger" length="4.50" width="1.80" height="1.50"/>
    <vehicle id="4_10" x="971.87" y="1001.55" z="0.75" angle="276.71" speed="11.51" type="passenger" length="4.50" width="1.80" height="1.50"/>
    <vehicle id="4_11" x="982.73" y="997.72" z="0.75" angle="280.51" speed="9.93" type="passenger" length="4.50" width="1.80" height="1.50"/>
    <vehicle id="4_12" x="1026.19" y="1016.13" z="0.75" angle="195.37" speed="0.00" type="passenger" length="4.50" width="1.80" height="1.50"/>
    <vehicle id="4_13" x="980.72" y="988.16" z="0.75" angle="125.51" speed="6.97" type="passenger" length="4.50" width="1.80" height="1.50"/>
    <vehicle id="4_14" x="1029.55" y="988.68" z="0.75" angle="276.79" speed="0.00" type="passenger" length="4.50" width="1.80" height="1.50"/>
    <vehicle id="4_15" x="1015.43" y="995.63" z="0.75" angle="283.29" speed="8.31" type="passenger" length="4.50" width="1.80" height="1.50"/>
    <vehicle id="4_2" x="1017.50" y="1000.89" z="0.75" angle="221.47" speed="0.29" type="passenger" length="4.50" width="1.80" height="1.50"/>
    <vehicle id="4_3" x="991.54" y="1005.60" z="0.75" angle="192.85" speed="0.00" type="passenger" length="4.50" width="1.80" height="1.50"/>
    <vehicle id="4_4" x="994.10" y="1011.86" z="0.75" angle="200.41" speed="0.00" type="passenger" length="4.50" width="1.80" height="1.50"/>
    <vehicle id="4_5" x="1002.16" y="982.18" z="0.75" angle="59.51" speed="3.54" type="passenger" length="4.50" width="1.80" height="1.50"/>
    <vehicle id="4_6" x="1020.97" y="1005.61" z="0.75" angle="209.52" speed="0.00" type="passenger" length="4.50" width="1.80" height="1.50"/>
    <vehicle id="4_7" x="1023.58" y="1010.86" z="0.75" angle="204.65" speed="0.00" type="passenger" length="4.50" width="1.80" height="1.50"/>
    <vehicle id="4_8" x="1022.36" y="986.00" z="0.75" angle="99.52" speed="10.37" type="passenger" length="4.50" width="1.80" height="1.50"/>
    <vehicle id="4_9" x="959.24" y="1001.92" z="0.75" angle="280.23" speed="12.51" type="passenger" length="4.50" width="1.80" height="1.50"/>
  </timestep>
  <timestep time="0.70">
    <vehicle id="4_1" x="979.42" y="983.53" z="0.75" angle="276.77" speed="1.43" type="passenger" length="4.50" width="1.80" height="1.50"/>
    <vehicle id="4_10" x="970.73" y="1001.68" z="0.75" angle="276.67" speed="11.54" type="passenger" length="4.50" width="1.80" height="1.50"/>
    <vehicle id="4_11" x="981.75" y="997.90" z="0.75" angle="280.49" speed="9.97" type="passenger" length="4.50" width="1.80" height="1.50"/>
    <vehicle id="4_12" x="1026.19" y="1016.13" z="0.75" angle="195.37" speed="0.00" type="passenger" length="4.50" width="1.80" height="1.50"/>
    <vehicle id="4_13" x="981.25" y="987.70" z="0.75" angle="128.24" speed="7.02" type="passenger" length="4.50" width="1.80" height="1.50"/>
    <vehicle id="4_14" x="1029.55" y="988.68" z="0.75" angle="276.74" speed="0.00" type="passenger" length="4.50" width="1.80" height="1.50"/>
    <vehicle id="4_15" x="1014.62" y="995.84" z="0.75" angle="284.16" speed="8.18" type="passenger" length="4.50" width="1.80" height="1.50"/>
    <vehicle id="4_2" x="1017.48" y="1000.87" z="0.75" angle="221.56" speed="0.34" type="passenger" length="4.50" width="1.80" height="1.50"/>
    <vehicle id="4_3" x="991.54" y="1005.60" z="0.75" angle="192.85" speed="0.00" type="passenger" length="4.50" width="1.80" height="1.50"/>
    <vehicle id="4_4" x="994.10" y="1011.86" z="0.75" angle="200.41" speed="0.00" type="passenger" length="4.50" width="1.80" height="1.50"/>
    <vehicle id="4_5" x="1002.49" y="982.31" z="0.75" angle="61.23" speed="3.62" type="passenger" length="4.50" width="1.80" height="1.50"/>
    <vehicle id="4_6" x="1020.97" y="1005.61" z="0.75" angle="209.52" speed="0.00" type="passenger" length="4.50" width="1.80" height="1.50"/>
    <vehicle id="4_7" x="1023.58" y="1010.86" z="0.75" angle="204.65" speed="0.00" type="passenger" length="4.50" width="1.80" height="1.50"/>
    <vehicle id="4_8" x="1023.38" y="985.83" z="0.75" angle="99.49" speed="10.33" type="passenger" length="4.50" width="1.80" height="1.50"/>
    <vehicle id="4_9" x="958.01" y="1002.14" z="0.75" angle="280.20" speed="12.50" type="passenger" length="4.50" width="1.80" height="1.50"/>
  </timestep>
  <timestep time="0.80">
    <vehicle id="4_1" x="979.28" y="983.54" z="0.75" angle="276.76" speed="1.43" type="passenger" length="4.50" width="1.80" height="1.50"/>
    <vehicle id="4_10" x="969.58" y="1001.81" z="0.75" angle="276.63" speed="11.55" type="passenger" length="4.50" width="1.80" height="1.50"/>
    <vehicle id="4_11" x="980.77" y="998.08" z="0.75" angle="280.47" speed="10.01" type="passenger" length="4.50" width="1.80" height="1.50"/>
    <vehicle id="4_12" x="1026.19" y="1016.13" z="0.75" angle="195.37" speed="0.00" type="passenger" length="4.50" width="1.80" height="1.50"/>
    <vehicle id="4_13" x="981.76" y="987.22" z="0.75" angle="131.06" speed="7.09" type="passenger" length="4.50" width="1.80" height="1.50"/>
    <vehicle id="4_14" x="1029.55" y="988.68" z="0.75" angle="276.74" speed="0.00" type="passenger" length="4.50" width="1.80" height="1.50"/>
    <vehicle id="4_15" x="1013.83" y="996.06" z="0.75" angle="285.16" speed="8.05" type="passenger" length="4.50" width="1.80" height="1.50"/>
    <vehicle id="4_2" x="1017.46" y="1000.85" z="0.75" angle="221.80" speed="0.41" type="passenger" length="4.50" width="1.80" height="1.50"/>
    <vehicle id="4_3" x="991.54" y="1005.60" z="0.75" angle="192.85" speed="0.00" type="passenger" length="4.50" width="1.80" height="1.50"/>
    <vehicle id="4_4" x="994.10" y="1011.86" z="0.75" angle="200.41" speed="0.00" type="passenger" length="4.50" width="1.80" height="1.50"/>
    <vehicle id="4_5" x="1002.83" y="982.43" z="0.75" angle="62.95" speed="3.71" type="passenger" length="4.50" width="1.80" height="1.50"/>
    <vehicle id="4_6" x="1020.97" y="1005.61" z="0.75" angle="209.52" speed="0.00" type="passenger" length="4.50" width="1.80" height="1.50"/>
    <vehicle id="4_7" x="1023.58" y="1010.86" z="0.75" angle="204.65" speed="0.00" type="passenger" length="4.50" width="1.80" height="1.50"/>
    <vehicle id="4_8" x="1024.40" y="985.66" z="0.75" angle="99.46" speed="10.29" type="passenger" length="4.50" width="1.80" height="1.50"/>
    <vehicle id="4_9" x="956.78" y="1002.36" z="0.75" angle="280.19" speed="12.49" type="passenger" length="4.50" width="1.80" height="1.50"/>
  </timestep>
  <timestep time="0.90">
    <vehicle id="4_1" x="979.14" y="983.56" z="0.75" angle="276.89" speed="1.42" type="passenger" length="4.50" width="1.80" height="1.50"/>
    <vehicle id="4_10" x="968.43" y="1001.95" z="0.75" angle="276.59" speed="11.56" type="passenger" length="4.50" width="1.80" height="1.50"/>
    <vehicle id="4_11" x="979.78" y="998.26" z="0.75" angle="280.44" speed="10.06" type="passenger" length="4.50" width="1.80" height="1.50"/>
    <vehicle id="4_12" x="1026.19" y="1016.13" z="0.75" angle="195.37" speed="0.00" type="passenger" length="4.50" width="1.80" height="1.50"/>
    <vehicle id="4_13" x="982.25" y="986.70" z="0.75" angle="133.94" speed="7.18" type="passenger" length="4.50" width="1.80" height="1.50"/>
    <vehicle id="4_14" x="1029.55" y="988.68" z="0.75" angle="276.68" speed="0.00" type="passenger" length="4.50" width="1.80" height="1.50"/>
    <vehicle id="4_15" x="1013.06" y="996.30" z="0.75" angle="286.29" speed="7.94" type="passenger" length="4.50" width="1.80" height="1.50"/>
    <vehicle id="4_16" x="937.45" y="1001.14" z="0.75" angle="100.01" speed="11.00" type="passenger" length="4.50" width="1.80" height="1.50"/>
    <vehicle id="4_2" x="1017.42" y="1000.82" z="0.75" angle="221.93" speed="0.48" type="passenger" length="4.50" width="1.80" height="1.50"/>
    <vehicle id="4_3" x="991.54" y="1005.60" z="0.75" angle="192.85" speed="0.00" type="passenger" length="4.50" width="1.80" height="1.50"/>
    <vehicle id="4_4" x="994.10" y="1011.86" z="0.75" angle="200.41" speed="0.00" type="passenger" length="4.50" width="1.80" height="1.50"/>
    <vehicle id="4_5" x="1003.18" y="982.55" z="0.75" angle="64.68" speed="3.80" type="passenger" length="4.50" width="1.80" height="1.50"/>
    <vehicle id="4_6" x="1020.97" y="1005.61" z="0.75" angle="209.52" speed="0.00" type="passenger" length="4.50" width="1.80" height="1.50"/>
    <vehicle id="4_7" x="1023.58" y="1010.86" z="0.75" angle="204.65" speed="0.00" type="passenger" length="4.50" width="1.80" height="1.50"/>
    <vehicle id="4_8" x="1025.41" y="985.49" z="0.75" angle="99.44" speed="10.25" type="passenger" length="4.50" width="1.80" height="1.50"/>
    <vehicle id="4_9" x="955.55" y="1002.58" z="0.75" angle="280.19" speed="12.49" type="passenger" length="4.50" width="1.80" height="1.50"/>
  </timestep>
  <timestep time="1.00">
    <vehicle id="4_1" x="979.00" y="983.58" z="0.75" angle="277.12" speed="1.40" type="passenger" length="4.50" width="1.80" height="1.50"/>
    <vehicle id="4_10" x="967.28" y="1002.08" z="0.75" angle="276.56" speed="11.56" type="passenger" length="4.50" width="1.80" height="1.50"/>
    <vehicle id="4_11" x="978.79" y="998.44" z="0.75" angle="280.42" speed="10.10" type="passenger" length="4.50" width="1.80" height="1.50"/>
    <vehicle id="4_12" x="1026.19" y="1016.13" z="0.75" angle="195.37" speed="0.00" type="passenger" length="4.50" width="1.80" height="1.50"/>
    <vehicle id="4_13" x="982.72" y="986.15" z="0.75" angle="136.86" speed="7.28" type="passenger" length="4.50" width="1.80" height="1.50"/>
    <vehicle id="4_14" x="1029.55" y="988.68" z="0.75" angle="276.68" speed="0.00" type="passenger" length="4.50" width="1.80" height="1.50"/>
    <vehicle id="4_15" x="1012.31" y="996.55" z="0.75" angle="287.56" speed="7.83" type="passenger" length="4.50" width="1.80" height="1.50"/>
    <vehicle id="4_16" x="938.53" y="1000.95" z="0.75" angle="99.95" speed="11.00" type="passenger" length="4.50" width="1.80" height="1.50"/>
    <vehicle id="4_2" x="1017.39" y="1000.79" z="0.75" angle="222.29" speed="0.55" type="passenger" length="4.50" width="1.80" height="1.50"/>
    <vehicle id="4_3" x="991.54" y="1005.60" z="0.75" angle="192.85" speed="0.00" type="passenger" length="4.50" width="1.80" height="1.50"/>
    <vehicle id="4_4" x="994.10" y="1011.86" z="0.75" angle="200.41" speed="0.00" type="passenger" length="4.50" width="1.80" height="1.50"/>
    <vehicle id="4_5" x="1003.55" y="982.66" z="0.75" angle="66.39" speed="3.90" type="passenger" length="4.50" width="1.80" height="1.50"/>
    <vehicle id="4_6" x="1020.97" y="1005.61" z="0.75" angle="209.52" speed="0.00" type="passenger" length="4.50" width="1.80" height="1.50"/>
    <vehicle id="4_7" x="1023.58" y="1010.86" z="0.75" angle="204.65" speed="0.00" type="passenger" length="4.50" width="1.80" height="1.50"/>
    <vehicle id="4_8" x="1026.42" y="985.32" z="0.75" angle="99.42" speed="10.22" type="passenger" length="4.50" width="1.80" height="1.50"/>
    <vehicle id="4_9" x="954.32" y="1002.80" z="0.75" angle="280.19" speed="12.48" type="passenger" length="4.50" width="1.80" height="1.50"/>
  </timestep>
  <timestep time="1.10">
    <vehicle id="4_1" x="978.86" y="983.60" z="0.75" angle="277.41" speed="1.39" type="passenger" length="4.50" width="1.80" height="1.50"/>
    <vehicle id="4_10" x="966.14" y="1002.21" z="0.75" angle="276.53" speed="11.56" type="passenger" length="4.50" width="1.80" height="1.50"/>
    <vehicle id="4_11" x="977.80" y="998.62" z="0.75" angle="280.38" speed="10.14" type="passenger" length="4.50" width="1.80" height="1.50"/>
    <vehicle id="4_12" x="1026.19" y="1016.13" z="0.75" angle="195.37" speed="0.00" type="passenger" length="4.50" width="1.80" height="1.50"/>
    <vehicle id="4_13" x="983.16" y="985.58" z="0.75" angle="139.79" speed="7.40" type="passenger" length="4.50" width="1.80" height="1.50"/>
    <vehicle id="4_14" x="1029.55" y="988.68" z="0.75" angle="276.68" speed="0.00" type="passenger" length="4.50" width="1.80" height="1.50"/>
    <vehicle id="4_15" x="1011.57" y="996.82" z="0.75" angle="288.96" speed="7.74" type="passenger" length="4.50" width="1.80" height="1.50"/>
    <vehicle id="4_16" x="939.62" y="1000.77" z="0.75" angle="99.89" speed="11.00" type="passenger" length="4.50" width="1.80" height="1.50"/>
    <vehicle id="4_2" x="1017.34" y="1000.76" z="0.75" angle="222.59" speed="0.64" type="passenger" length="4.50" width="1.80" height="1.50"/>
    <vehicle id="4_3" x="991.54" y="1005.60" z="0.75" angle="192.85" speed="0.00" type="passenger" length="4.50" width="1.80" height="1.50"/>
    <vehicle id="4_4" x="994.10" y="1011.86" z="0.75" angle="200.41" speed="0.00" type="passenger" length="4.50" width="1.80" height="1.50"/>
    <vehicle id="4_5" x="1003.92" y="982.76" z="0.75" angle="68.10" speed="3.99" type="passenger" length="4.50" width="1.80" height="1.50"/>
    <vehicle id="4_6" x="1020.97" y="1005.61" z="0.75" angle="209.52" speed="0.00" type="passenger" length="4.50" width="1.80" height="1.50"/>
    <vehicle id="4_7" x="1023.58" y="1010.86" z="0.75" angle="204.65" speed="0.00" type="passenger" length="4.50" width="1.80" height="1.50"/>
    <vehicle id="4_8" x="1027.43" y="985.16" z="0.75" angle="99.41" speed="10.19" type="passenger" length="4.50" width="1.80" height="1.50"/>
    <vehicle id="4_9" x="953.09" y="1003.02" z="0.75" angle="280.20" speed="12.48" type="passenger" length="4.50" width="1.80" height="1.50"/>
  </timestep>
  <timestep time="1.20">
    <vehicle id="4_1" x="978.72" y="983.62" z="0.75" angle="277.84" speed="1.38" type="passenger" length="4.50" width="1.80" height="1.50"/>
    <vehicle id="4_10" x="964.99" y="1002.34" z="0.75" angle="276.51" speed="11.56" type="passenger" length="4.50" width="1.80" height="1.50"/>
    <vehicle id="4_11" x="976.80" y="998.81" z="0.75" angle="280.34" speed="10.18" type="passenger" length="4.50" width="1.80" height="1.50"/>
    <vehicle id="4_12" x="1026.19" y="1016.13" z="0.75" angle="195.37" speed="0.00" type="passenger" length="4.50" width="1.80" height="1.50"/>
    <vehicle id="4_13" x="983.59" y="984.97" z="0.75" angle="142.70" speed="7.53" type="passenger" length="4.50" width="1.80" height="1.50"/>
    <vehicle id="4_14" x="1029.55" y="988.68" z="0.75" angle="276.68" speed="0.00" type="passenger" length="4.50" width="1.80" height="1.50"/>
    <vehicle id="4_15" x="1010.85" y="997.10" z="0.75" angle="290.49" speed="7.66" type="passenger" length="4.50" width="1.80" height="1.50"/>
    <vehicle id="4_16" x="940.70" y="1000.58" z="0.75" angle="99.83" speed="11.00" type="passenger" length="4.50" width="1.80" height="1.50"/>
    <vehicle id="4_2" x="1017.29" y="1000.72" z="0.75" angle="222.95" speed="0.73" type="passenger" length="4.50" width="1.80" height="1.50"/>
    <vehicle id="4_3" x="991.54" y="1005.60" z="0.75" angle="192.85" speed="0.00" type="passenger" length="4.50" width="1.80" height="1.50"/>
    <vehicle id="4_4" x="994.10" y="1011.86" z="0.75" angle="200.41" speed="0.00" type="passenger" length="4.50" width="1.80" height="1.50"/>
    <vehicle id="4_5" x="1004.31" y="982.86" z="0.75" angle="69.80" speed="4.08" type="passenger" length="4.50" width="1.80" height="1.50"/>
    <vehicle id="4_6" x="1020.97" y="1005.61" z="0.75" angle="209.52" speed="0.00" type="passenger" length="4.50" width="1.80" height="1.50"/>
    <vehicle id="4_7" x="1023.58" y="1010.86" z="0.75" angle="204.65" speed="0.00" type="passenger" length="4.50" width="1.80" height="1.50"/>
    <vehicle id="4_8" x="1028.44" y="984.99" z="0.75" angle="99.39" speed="10.16" type="passenger" length="4.50" width="1.80" height="1.50"/>
    <vehicle id="4_9" x="951.86" y="1003.24" z="0.75" angle="280.21" speed="12.48" type="passenger" length="4.50" width="1.80" height="1.50"/>
  </timestep>
  <timestep time="1.30">
    <vehicle id="4_1" x="978.58" y="983.63" z="0.75" angle="278.32" speed="1.38" type="passenger" length="4.50" width="1.80" height="1.50"/>
    <vehicle id="4_10" x="963.84" y="1002.47" z="0.75" angle="276.51" speed="11.55" type="passenger" length="4.50" width="1.80" height="1.50"/>
    <vehicle id="4_11" x="975.80" y="998.99" z="0.75" angle="280.29" speed="10.22" type="passenger" length="4.50" width="1.80" height="1.50"/>
    <vehicle id="4_12" x="1026.19" y="1016.13" z="0.75" angle="195.37" speed="0.00" type="passenger" length="4.50" width="1.80" height="1.50"/>
    <vehicle id="4_13" x="983.99" y="984.33" z="0.75" angle="145.57" speed="7.67" type="passenger" length="4.50" width="1.80" height="1.50"/>
    <vehicle id="4_14" x="1029.55" y="988.68" z="0.75" angle="276.68" speed="0.00" type="passenger" length="4.50" width="1.80" height="1.50"/>
    <vehicle id="4_15" x="1010.15" y="997.40" z="0.75" angle="292.13" speed="7.58" type="passenger" length="4.50" width="1.80" height="1.50"/>