<?xml version="1.0" ?>
<fcd-export>
  <timestep time="0.00">
    <vehicle id="2_1" x="990.69" y="1005.70" z="0.75" angle="-109.66" speed="0.00" type="passenger" length="4.50" width="1.80" height="1.50"/>
    <vehicle id="2_10" x="939.51" y="1001.36" z="0.75" angle="-9.34" speed="12.34" type="passenger" length="4.50" width="1.80" height="1.50"/>
    <vehicle id="2_2" x="993.52" y="981.84" z="0.75" angle="87.26" speed="0.00" type="passenger" length="4.50" width="1.80" height="1.50"/>
    <vehicle id="2_3" x="992.26" y="972.96" z="0.75" angle="-93.62" speed="0.00" type="passenger" length="4.50" width="1.80" height="1.50"/>
    <vehicle id="2_5" x="1009.80" y="975.73" z="0.75" angle="-59.53" speed="8.55" type="passenger" length="4.50" width="1.80" height="1.50"/>
    <vehicle id="2_6" x="1005.41" y="997.78" z="0.75" angle="-172.63" speed="6.63" type="passenger" length="4.50" width="1.80" height="1.50"/>
    <vehicle id="2_7" x="959.17" y="1003.27" z="0.75" angle="173.38" speed="12.16" type="passenger" length="4.50" width="1.80" height="1.50"/>
    <vehicle id="2_8" x="981.47" y="990.40" z="0.75" angle="-11.40" speed="8.68" type="passenger" length="4.50" width="1.80" height="1.50"/>
    <vehicle id="2_9" x="968.65" y="996.33" z="0.75" angle="-10.14" speed="12.04" type="passenger" length="4.50" width="1.80" height="1.50"/>
  </timestep>
  <timestep time="0.10">
    <vehicle id="2_1" x="990.69" y="1005.70" z="0.75" angle="-109.66" speed="0.00" type="passenger" length="4.50" width="1.80" height="1.50"/>
    <vehicle id="2_10" x="940.73" y="1001.15" z="0.75" angle="-9.40" speed="12.34" type="passenger" length="4.50" width="1.80" height="1.50"/>
    <vehicle id="2_2" x="993.52" y="981.84" z="0.75" angle="87.26" speed="0.00" type="passenger" length="4.50" width="1.80" height="1.50"/>
    <vehicle id="2_3" x="992.26" y="972.96" z="0.75" angle="-93.62" speed="0.00" type="passenger" length="4.50" width="1.80" height="1.50"/>
    <vehicle id="2_5" x="1010.19" y="974.97" z="0.75" angle="-61.88" speed="8.65" type="passenger" length="4.50" width="1.80" height="1.50"/>
    <vehicle id="2_6" x="1004.75" y="997.73" z="0.75" angle="-173.78" speed="6.81" type="passenger" length="4.50" width="1.80" height="1.50"/>
    <vehicle id="2_7" x="957.97" y="1003.41" z="0.75" angle="173.26" speed="12.14" type="passenger" length="4.50" width="1.80" height="1.50"/>
    <vehicle id="2_8" x="982.32" y="990.23" z="0.75" angle="-11.40" speed="8.58" type="passenger" length="4.50" width="1.80" height="1.50"/>
    <vehicle id="2_9" x="969.83" y="996.11" z="0.75" angle="-10.14" speed="12.05" type="passenger" length="4.50" width="1.80" height="1.50"/>
  </timestep>
  <timestep time="0.20">
    <vehicle id="2_1" x="990.69" y="1005.70" z="0.75" angle="-109.66" speed="0.00" type="passenger" length="4.50" width="1.80" height="1.50"/>
    <vehicle id="2_10" x="941.95" y="1000.95" z="0.75" angle="-9.45" speed="12.35" type="passenger" length="4.50" width="1.80" height="1.50"/>
    <vehicle id="2_2" x="993.52" y="981.84" z="0.75" angle="87.26" speed="0.00" type="passenger" length="4.50" width="1.80" height="1.50"/>
    <vehicle id="2_3" x="992.26" y="972.96" z="0.75" angle="-93.62" speed="0.00" type="passenger" length="4.50" width="1.80" height="1.50"/>
    <vehicle id="2_5" x="1010.56" y="974.18" z="0.75" angle="-64.17" speed="8.75" type="passenger" length="4.50" width="1.80" height="1.50"/>
    <vehicle id="2_6" x="1004.06" y="997.69" z="0.75" angle="-174.87" speed="7.00" type="passenger" length="4.50" width="1.80" height="1.50"/>
    <vehicle id="2_7" x="956.76" y="1003.56" z="0.75" angle="173.21" speed="12.12" type="passenger" length="4.50" width="1.80" height="1.50"/>
    <vehicle id="2_8" x="983.16" y="990.06" z="0.75" angle="-11.46" speed="8.48" type="passenger" length="4.50" width="1.80" height="1.50"/>
    <vehicle id="2_9" x="971.02" y="995.90" z="0.75" angle="-10.20" speed="12.07" type="passenger" length="4.50" width="1.80" height="1.50"/>
  </timestep>
  <timestep time="0.30">
    <vehicle id="2_1" x="990.69" y="1005.70" z="0.75" angle="-109.66" speed="0.00" type="passenger" length="4.50" width="1.80" height="1.50"/>
    <vehicle id="2_10" x="943.16" y="1000.75" z="0.75" angle="-9.51" speed="12.35" type="passenger" length="4.50" width="1.80" height="1.50"/>
    <vehicle id="2_2" x="993.52" y="981.84" z="0.75" angle="87.26" speed="0.00" type="passenger" length="4.50" width="1.80" height="1.50"/>
    <vehicle id="2_3" x="992.26" y="972.96" z="0.75" angle="-93.62" speed="0.00" type="passenger" length="4.50" width="1.80" height="1.50"/>
    <vehicle id="2_5" x="1010.90" y="973.38" z="0.75" angle="-66.35" speed="8.84" type="passenger" length="4.50" width="1.80" height="1.50"/>
    <vehicle id="2_6" x="1003.37" y="997.66" z="0.75" angle="-175.90" speed="7.19" type="passenger" length="4.50" width="1.80" height="1.50"/>
    <vehicle id="2_7" x="955.56" y="1003.71" z="0.75" angle="173.09" speed="12.09" type="passenger" length="4.50" width="1.80" height="1.50"/>
    <vehicle id="2_8" x="984.00" y="989.89" z="0.75" angle="-11.52" speed="8.38" type="passenger" length="4.50" width="1.80" height="1.50"/>
    <vehicle id="2_9" x="972.21" y="995.69" z="0.75" angle="-10.20" speed="12.08" type="passenger" length="4.50" width="1.80" height="1.50"/>
  </timestep>
  <timestep time="0.40">
    <vehicle id="2_1" x="990.69" y="1005.70" z="0.75" angle="-109.66" speed="0.00" type="passenger" length="4.50" width="1.80" height="1.50"/>
    <vehicle id="2_10" x="944.38" y="1000.54" z="0.75" angle="-9.51" speed="12.35" type="passenger" length="4.50" width="1.80" height="1.50"/>
    <vehicle id="2_2" x="993.52" y="981.84" z="0.75" angle="87.26" speed="0.00" type="passenger" length="4.50" width="1.80" height="1.50"/>
    <vehicle id="2_3" x="992.26" y="972.96" z="0.75" angle="-93.62" speed="0.00" type="passenger" length="4.50" width="1.80" height="1.50"/>
    <vehicle id="2_5" x="1011.22" y="972.55" z="0.75" angle="-68.41" speed="8.94" type="passenger" length="4.50" width="1.80" height="1.50"/>
    <vehicle id="2_6" x="1002.65" y="997.64" z="0.75" angle="-176.87" speed="7.38" type="passenger" length="4.50" width="1.80" height="1.50"/>
    <vehicle id="2_7" x="954.36" y="1003.85" z="0.75" angle="172.98" speed="12.06" type="passenger" length="4.50" width="1.80" height="1.50"/>
    <vehicle id="2_8" x="984.82" y="989.72" z="0.75" angle="-11.63" speed="8.28" type="passenger" length="4.50" width="1.80" height="1.50"/>
    <vehicle id="2_9" x="973.39" y="995.47" z="0.75" angle="-10.26" speed="12.10" type="passenger" length="4.50" width="1.80" height="1.50"/>
  </timestep>
  <timestep time="0.50">
    <vehicle id="2_1" x="990.69" y="1005.70" z="0.75" angle="-109.66" speed="0.00" type="passenger" length="4.50" width="1.80" height="1.50"/>
    <vehicle id="2_10" x="945.60" y="1000.34" z="0.75" angle="-9.57" speed="12.35" type="passenger" length="4.50" width="1.80" height="1.50"/>
    <vehicle id="2_2" x="993.52" y="981.84" z="0.75" angle="87.26" speed="0.00" type="passenger" length="4.50" width="1.80" height="1.50"/>
    <vehicle id="2_3" x="992.26" y="972.96" z="0.75" angle="-93.62" speed="0.00" type="passenger" length="4.50" width="1.80" height="1.50"/>
    <vehicle id="2_5" x="1011.51" y="971.71" z="0.75" angle="-70.36" speed="9.02" type="passenger" length="4.50" width="1.80" height="1.50"/>
    <vehicle id="2_6" x="1001.91" y="997.63" z="0.75" angle="-177.73" speed="7.57" type="passenger" length="4.50" width="1.80" height="1.50"/>
    <vehicle id="2_7" x="953.16" y="1004.00" z="0.75" angle="172.86" speed="12.04" type="passenger" length="4.50" width="1.80" height="1.50"/>
    <vehicle id="2_8" x="985.63" y="989.55" z="0.75" angle="-11.80" speed="8.17" type="passenger" length="4.50" width="1.80" height="1.50"/>
    <vehicle id="2_9" x="974.58" y="995.25" z="0.75" angle="-10.31" speed="12.11" type="passenger" length="4.50" width="1.80" height="1.50"/>
  </timestep>
  <timestep time="0.60">
    <vehicle id="2_1" x="990.69" y="1005.70" z="0.75" angle="-109.66" speed="0.00" type="passenger" length="4.50" width="1.80" height="1.50"/>
    <vehicle id="2_10" x="946.82" y="1000.13" z="0.75" angle="-9.63" speed="12.35" type="passenger" length="4.50" width="1.80" height="1.50"/>
    <vehicle id="2_2" x="993.52" y="981.84" z="0.75" angle="87.26" speed="0.00" type="passenger" length="4.50" width="1.80" height="1.50"/>
    <vehicle id="2_3" x="992.26" y="972.96" z="0.75" angle="-93.62" speed="0.00" type="passenger" length="4.50" width="1.80" height="1.50"/>
    <vehicle id="2_5" x="1011.78" y="970.85" z="0.75" angle="-72.14" speed="9.11" type="passenger" length="4.50" width="1.80" height="1.50"/>
    <vehicle id="2_6" x="1001.15" y="997.63" z="0.75" angle="-178.59" speed="7.76" type="passenger" length="4.50" width="1.80" height="1.50"/>
    <vehicle id="2_7" x="951.97" y="1004.16" z="0.75" angle="172.75" speed="12.01" type="passenger" length="4.50" width="1.80" height="1.50"/>
    <vehicle id="2_8" x="986.42" y="989.38" z="0.75" angle="-11.97" speed="8.06" type="passenger" length="4.50" width="1.80" height="1.50"/>
    <vehicle id="2_9" x="975.78" y="995.04" z="0.75" angle="-10.31" speed="12.13" type="passenger" length="4.50" width="1.80" height="1.50"/>
  </timestep>
  <timestep time="0.70">
    <vehicle id="2_1" x="990.69" y="1005.70" z="0.75" angle="-109.66" speed="0.00" type="passenger" length="4.50" width="1.80" height="1.50"/>
    <vehicle id="2_10" x="948.04" y="999.92" z="0.75" angle="-9.68" speed="12.34" type="passenger" length="4.50" width="1.80" height="1.50"/>
    <vehicle id="2_11" x="1026.14" y="992.67" z="0.75" angle="171.20" speed="14.01" type="passenger" length="4.50" width="1.80" height="1.50"/>
    <vehicle id="2_2" x="993.52" y="981.84" z="0.75" angle="87.26" speed="0.00" type="passenger" length="4.50" width="1.80" height="1.50"/>
    <vehicle id="2_3" x="992.26" y="972.96" z="0.75" angle="-93.62" speed="0.00" type="passenger" length="4.50" width="1.80" height="1.50"/>
    <vehicle id="2_4" x="1027.03" y="999.95" z="0.75" angle="-101.99" speed="0.66" type="passenger" length="4.50" width="1.80" height="1.50"/>
    <vehicle id="2_5" x="1012.02" y="969.97" z="0.75" angle="-73.68" speed="9.18" type="passenger" length="4.50" width="1.80" height="1.50"/>
    <vehicle id="2_6" x="1000.37" y="997.63" z="0.75" angle="-179.39" speed="7.95" type="passenger" length="4.50" width="1.80" height="1.50"/>
    <vehicle id="2_7" x="950.78" y="1004.31" z="0.75" angle="172.63" speed="11.98" type="passenger" length="4.50" width="1.80" height="1.50"/>
    <vehicle id="2_8" x="987.21" y="989.21" z="0.75" angle="-12.20" speed="7.94" type="passenger" length="4.50" width="1.80" height="1.50"/>
    <vehicle id="2_9" x="976.97" y="994.82" z="0.75" angle="-10.37" speed="12.15" type="passenger" length="4.50" width="1.80" height="1.50"/>
  </timestep>
  <timestep time="0.80">
    <vehicle id="2_1" x="990.69" y="1005.70" z="0.75" angle="-109.66" speed="0.00" type="passenger" length="4.50" width="1.80" height="1.50"/>
    <vehicle id="2_10" x="949.25" y="999.71" z="0.75" angle="-9.74" speed="12.34" type="passenger" length="4.50" width="1.80" height="1.50"/>
    <vehicle id="2_11" x="1024.76" y="992.88" z="0.75" angle="171.20" speed="14.01" type="passenger" length="4.50" width="1.80" height="1.50"/>
    <vehicle id="2_2" x="993.52" y="981.84" z="0.75" angle="87.26" speed="0.00" type="passenger" length="4.50" width="1.80" height="1.50"/>
    <vehicle id="2_3" x="992.26" y="972.96" z="0.75" angle="-93.62" speed="0.00" type="passenger" length="4.50" width="1.80" height="1.50"/>
    <vehicle id="2_4" x="1027.02" y="999.89" z="0.75" angle="-101.99" speed="0.63" type="passenger" length="4.50" width="1.80" height="1.50"/>
    <vehicle id="2_5" x="1012.25" y="969.08" z="0.75" angle="-75.11" speed="9.24" type="passenger" length="4.50" width="1.80" height="1.50"/>
    <vehicle id="2_6" x="999.58" y="997.65" z="0.75" angle="179.91" speed="8.15" type="passenger" length="4.50" width="1.80" height="1.50"/>
    <vehicle id="2_7" x="949.59" y="1004.47" z="0.75" angle="172.52" speed="11.96" type="passenger" length="4.50" width="1.80" height="1.50"/>
    <vehicle id="2_8" x="987.99" y="989.03" z="0.75" angle="-12.49" speed="7.83" type="passenger" length="4.50" width="1.80" height="1.50"/>
    <vehicle id="2_9" x="978.16" y="994.60" z="0.75" angle="-10.37" speed="12.17" type="passenger" length="4.50" width="1.80" height="1.50"/>
  </timestep>
  <timestep time="0.90">
    <vehicle id="2_1" x="990.69" y="1005.70" z="0.75" angle="-109.66" speed="0.00" type="passenger" length="4.50" width="1.80" height="1.50"/>
    <vehicle id="2_10" x="950.47" y="999.50" z="0.75" angle="-9.80" speed="12.33" type="passenger" length="4.50" width="1.80" height="1.50"/>
    <vehicle id="2_11" x="1023.37" y="993.10" z="0.75" angle="171.20" speed="14.01" type="passenger" length="4.50" width="1.80" height="1.50"/>
    <vehicle id="2_2" x="993.52" y="981.84" z="0.75" angle="87.26" speed="0.00" type="passenger" length="4.50" width="1.80" height="1.50"/>
    <vehicle id="2_3" x="992.26" y="972.96" z="0.75" angle="-93.62" speed="0.00" type="passenger" length="4.50" width="1.80" height="1.50"/>
    <vehicle id="2_4" x="1027.01" y="999.82" z="0.75" angle="-101.99" speed="0.59" type="passenger" length="4.50" width="1.80" height="1.50"/>
    <vehicle id="2_5" x="1012.47" y="968.18" z="0.75" angle="-76.38" speed="9.29" type="passenger" length="4.50" width="1.80" height="1.50"/>
    <vehicle id="2_6" x="998.76" y="997.67" z="0.75" angle="179.22" speed="8.34" type="passenger" length="4.50" width="1.80" height="1.50"/>
    <vehicle id="2_7" x="948.40" y="1004.62" z="0.75" angle="172.40" speed="11.93" type="passenger" length="4.50" width="1.80" height="1.50"/>
    <vehicle id="2_8" x="988.75" y="988.85" z="0.75" angle="-12.89" speed="7.71" type="passenger" length="4.50" width="1.80" height="1.50"/>
    <vehicle id="2_9" x="979.36" y="994.38" z="0.75" angle="-10.43" speed="12.19" type="passenger" length="4.50" width="1.80" height="1.50"/>
  </timestep>
  <timestep time="1.00">
    <vehicle id="2_1" x="990.69" y="1005.70" z="0.75" angle="-109.66" speed="0.00" type="passenger" length="4.50" width="1.80" height="1.50"/>
    <vehicle id="2_10" x="951.68" y="999.29" z="0.75" angle="-9.80" speed="12.31" type="passenger" length="4.50" width="1.80" height="1.50"/>
    <vehicle id="2_11" x="1021.99" y="993.31" z="0.75" angle="171.20" speed="14.00" type="passenger" length="4.50" width="1.80" height="1.50"/>
    <vehicle id="2_2" x="993.52" y="981.84" z="0.75" angle="87.26" speed="0.00" type="passenger" length="4.50" width="1.80" height="1.50"/>
    <vehicle id="2_3" x="992.26" y="972.96" z="0.75" angle="-93.62" speed="0.00" type="passenger" length="4.50" width="1.80" height="1.50"/>
    <vehicle id="2_4" x="1026.99" y="999.77" z="0.75" angle="-101.99" speed="0.55" type="passenger" length="4.50" width="1.80" height="1.50"/>
    <vehicle id="2_5" x="1012.66" y="967.27" z="0.75" angle="-77.52" speed="9.33" type="passenger" length="4.50" width="1.80" height="1.50"/>
    <vehicle id="2_6" x="997.93" y="997.70" z="0.75" angle="178.65" speed="8.53" type="passenger" length="4.50" width="1.80" height="1.50"/>
    <vehicle id="2_7" x="947.22" y="1004.78" z="0.75" angle="172.35" speed="11.91" type="passenger" length="4.50" width="1.80" height="1.50"/>
    <vehicle id="2_8" x="989.50" y="988.67" z="0.75" angle="-13.29" speed="7.60" type="passenger" length="4.50" width="1.80" height="1.50"/>
    <vehicle id="2_9" x="980.56" y="994.16" z="0.75" angle="-10.43" speed="12.21" type="passenger" length="4.50" width="1.80" height="1.50"/>
  </timestep>
  <timestep time="1.10">
    <vehicle id="2_1" x="990.69" y="1005.70" z="0.75" angle="-109.66" speed="0.00" type="passenger" length="4.50" width="1.80" height="1.50"/>
    <vehicle id="2_10" x="952.90" y="999.08" z="0.75" angle="-9.85" speed="12.30" type="passenger" length="4.50" width="1.80" height="1.50"/>
    <vehicle id="2_11" x="1020.61" y="993.53" z="0.75" angle="171.20" speed="13.98" type="passenger" length="4.50" width="1.80" height="1.50"/>
    <vehicle id="2_2" x="993.52" y="981.84" z="0.75" angle="87.26" speed="0.00" type="passenger" length="4.50" width="1.80" height="1.50"/>
    <vehicle id="2_3" x="992.26" y="972.96" z="0.75" angle="-93.62" speed="0.00" type="passenger" length="4.50" width="1.80" height="1.50"/>
    <vehicle id="2_4" x="1026.98" y="999.71" z="0.75" angle="-101.99" speed="0.51" type="passenger" length="4.50" width="1.80" height="1.50"/>
    <vehicle id="2_5" x="1012.85" y="966.35" z="0.75" angle="-78.50" speed="9.35" type="passenger" length="4.50" width="1.80" height="1.50"/>
    <vehicle id="2_6" x="997.08" y="997.74" z="0.75" angle="178.13" speed="8.72" type="passenger" length="4.50" width="1.80" height="1.50"/>
    <vehicle id="2_7" x="946.04" y="1004.95" z="0.75" angle="172.23" speed="11.89" type="passenger" length="4.50" width="1.80" height="1.50"/>
    <vehicle id="2_8" x="990.23" y="988.48" z="0.75" angle="-13.81" speed="7.48" type="passenger" length="4.50" width="1.80" height="1.50"/>
    <vehicle id="2_9" x="981.76" y="993.94" z="0.75" angle="-10.49" speed="12.23" type="passenger" length="4.50" width="1.80" height="1.50"/>
  </timestep>
  <timestep time="1.20">
    <vehicle id="2_1" x="990.69" y="1005.70" z="0.75" angle="-109.66" speed="0.00" type="passenger" length="4.50" width="1.80" height="1.50"/>
    <vehicle id="2_10" x="954.11" y="998.87" z="0.75" angle="-9.91" speed="12.28" type="passenger" length="4.50" width="1.80" height="1.50"/>
    <vehicle id="2_11" x="1019.23" y="993.74" z="0.75" angle="171.14" speed="13.96" type="passenger" length="4.50" width="1.80" height="1.50"/>
    <vehicle id="2_2" x="993.52" y="981.84" z="0.75" angle="87.26" speed="0.00" type="passenger" length="4.50" width="1.80" height="1.50"/>
    <vehicle id="2_3" x="992.26" y="972.96" z="0.75" angle="-93.62" speed="0.00" type="passenger" length="4.50" width="1.80" height="1.50"/>
    <vehicle id="2_4" x="1026.97" y="999.66" z="0.75" angle="-101.99" speed="0.46" type="passenger" length="4.50" width="1.80" height="1.50"/>
    <vehicle id="2_5" x="1013.01" y="965.43" z="0.75" angle="-79.47" speed="9.36" type="passenger" length="4.50" width="1.80" height="1.50"/>
    <vehicle id="2_6" x="996.21" y="997.78" z="0.75" angle="177.62" speed="8.90" type="passenger" length="4.50" width="1.80" height="1.50"/>
    <vehicle id="2_7" x="944.86" y="1005.11" z="0.75" angle="172.17" speed="11.87" type="passenger" length="4.50" width="1.80" height="1.50"/>
    <vehicle id="2_8" x="990.96" y="988.29" z="0.75" angle="-14.38" speed="7.37" type="passenger" length="4.50" width="1.80" height="1.50"/>
    <vehicle id="2_9" x="982.96" y="993.71" z="0.75" angle="-10.49" speed="12.26" type="passenger" length="4.50" width="1.80" height="1.50"/>
  </timestep>
  <timestep time="1.30">
    <vehicle id="2_1" x="990.69" y="1005.70" z="0.75" angle="-109.66" speed="0.00" type="passenger" length="4.50" width="1.80" height="1.50"/>
    <vehicle id="2_10" x="955.32" y="998.66" z="0.75" angle="-9.97" speed="12.26" type="passenger" length="4.50" width="1.80" height="1.50"/>
    <vehicle id="2_11" x="1017.85" y="993.96" z="0.75" angle="171.14" speed="13.94" type="passenger" length="4.50" width="1.80" height="1.50"/>
    <vehicle id="2_2" x="993.52" y="981.84" z="0.75" angle="87.26" speed="0.00" type="passenger" length="4.50" width="1.80" height="1.50"/>
    <vehicle id="2_3" x="992.26" y="972.96" z="0.75" angle="-93.62" speed="0.00" type="passenger" length="4.50" width="1.80" height="1.50"/>
    <vehicle id="2_4" x="1026.96" y="999.62" z="0.75" angle="-101.99" speed="0.42" type="passenger" length="4.50" width="1.80" height="1.50"/>
    <vehicle id="2_5" x="1013.17" y="964.51" z="0.75" angle="-80.39" speed="9.37" type="passenger" length="4.50" width="1.80" height="1.50"/>
    <vehicle id="2_6" x="995.32" y="997.84" z="0.75" angle="177.22" speed="9.08" type="passenger" length="4.50" width="1.80" height="1.50"/>
    <vehicle id="2_7" x="943.69" y="1005.27" z="0.75" angle="172.12" speed="11.85" type="passenger" length="4.50" width="1.80" height="1.50"/>
    <vehicle id="2_8" x="991.67" y="988.09" z="0.75" angle="-15.01" speed="7.25" type="passenger" length="4.50" width="1.80" height="1.50"/>
    <vehicle id="2_9" x="984.17" y="993.49" z="0.75" angle="-10.49" speed="12.28" type="passenger" length="4.50" width="1.80" height="1.50"/>
  </timestep>
  <timestep time="1.40">
    <vehicle id="2_1" x="990.69" y="1005.70" z="0.75" angle="-109.66" speed="0.00" type="passenger" length="4.50" width="1.80" height="1.50"/>
    <vehicle id="2_10" x="956.52" y="998.45" z="0.75" angle="-9.97" speed="12.24" type="passenger" length="4.50" width="1.80" height="1.50"/>
    <vehicle id="2_11" x="1016.47" y="994.17" z="0.75" angle="171.09" speed="13.91" type="passenger" length="4.50" width="1.80" height="1.50"/>
    <vehicle id="2_2" x="993.52" y="981.84" z="0.75" angle="87.26" speed="0.00" type="passenger" length="4.50" width="1.80" height="1.50"/>
    <vehicle id="2_3" x="992.26" y="972.96" z="0.75" angle="-93.62" speed="0.00" type="passenger" length="4.50" width="1.80" height="1.50"/>
    <vehicle id="2_4" x="1026.95" y="999.58" z="0.75" angle="-101.99" speed="0.37" type="passenger" length="4.50" width="1.80" height="1.50"/>
    <vehicle id="2_5" x="1013.30" y="963.58" z="0.75" angle="-81.30" speed="9.37" type="passenger" length="4.50" width="1.80" height="1.50"/>
    <vehicle id="2_6" x="994.41" y="997.89" z="0.75" angle="176.81" speed="9.26" type="passenger" length="4.50" width="1.80" height="1.50"/>
    <vehicle id="2_7" x="942.51" y="1005.43" z="0.75" angle="172.12" speed="11.84" type="passenger" length="4.50" width="1.80" height="1.50"/>
    <vehicle id="2_8" x="992.36" y="987.89" z="0.75" angle="-15.70" speed="7.14" type="passenger" length="4.50" width="1.80" height="1.50"/>
    <vehicle id="2_9" x="985.38" y="993.26" z="0.75" angle="-10.49" speed="12.31" type="passenger" length="4.50" width="1.80" height="1.50"/>
  </timestep>
  <timestep time="1.50">
    <vehicle id="2_1" x="990.69" y="1005.70" z="0.75" angle="-109.66" speed="0.00" type="passenger" length="4.50" width="1.80" height="1.50"/>
    <vehicle id="2_10" x="957.73" y="998.23" z="0.75" angle="-10.03" speed="12.22" type="passenger" length="4.50" width="1.80" height="1.50"/>
    <vehicle id="2_11" x="1015.09" y="994.39" z="0.75" angle="171.09" speed="13.87" type="passenger" length="4.50" width="1.80" height="1.50"/>
    <vehicle id="2_2" x="993.52" y="981.84" z="0.75" angle="87.26" speed="0.00" type="passenger" length="4.50" width="1.80" height="1.50"/>
    <vehicle id="2_3" x="992.26" y="972.96" z="0.75" angle="-93.62" speed="0.00" type="passenger" length="4.50" width="1.80" height="1.50"/>
    <vehicle id="2_4" x="1026.94" y="999.54" z="0.75" angle="-101.99" speed="0.32" type="passenger" length="4.50" width="1.80" height="1.50"/>
    <vehicle id="2_6" x="993.49" y="997.96" z="0.75" angle="176.47" speed="9.43" type="passenger" length="4.50" width="1.80" height="1.50"/>
    <vehicle id="2_7" x="941.34" y="1005.60" z="0.75" angle="172.06" speed="11.83" type="passenger" length="4.50" width="1.80" height="1.50"/>
    <vehicle id="2_8" x="993.04" y="987.67" z="0.75" angle="-16.50" speed="7.04" type="passenger" length="4.50" width="1.80" height="1.50"/>
    <vehicle id="2_9" x="986.59" y="993.04" z="0.75" angle="-10.54" speed="12.34" type="passenger" length="4.50" width="1.80" height="1.50"/>
  </timestep>
  <timestep time="1.60">
    <vehicle id="2_1" x="990.69" y="1005.70" z="0.75" angle="-109.66" speed="0.00" type="passenger" length="4.50" width="1.80" height="1.50"/>
    <vehicle id="2_10" x="958.93" y="998.02" z="0.75" angle="-10.08" speed="12.20" type="passenger" length="4.50" width="1.80" height="1.50"/>
    <vehicle id="2_11" x="1013.72" y="994.61" z="0.75" angle="171.03" speed="13.84" type="passenger" length="4.50" width="1.80" height="1.50"/>
    <vehicle id="2_2" x="993.52" y="981.84" z="0.75" angle="87.26" speed="0.00" type="passenger" length="4.50" width="1.80" height="1.50"/>
    <vehicle id="2_3" x="992.26" y="972.96" z="0.75" angle="-93.62" speed="0.00" type="passenger" length="4.50" width="1.80" height="1.50"/>
    <vehicle id="2_4" x="1026.94" y="999.51" z="0.75" angle="-102.04" speed="0.27" type="passenger" length="4.50" width="1.80" height="1.50"/>
    <vehicle id="2_6" x="992.54" y="998.02" z="0.75" angle="176.18" speed="9.60" type="passenger" length="4.50" width="1.80" height="1.50"/>
    <vehicle id="2_7" x="940.17" y="1005.76" z="0.75" angle="172.06" speed="11.82" type="passenger" length="4.50" width="1.80" height="1.50"/>
    <vehicle id="2_8" x="993.71" y="987.46" z="0.75" angle="-17.30" speed="6.93" type="passenger" length="4.50" width="1.80" height="1.50"/>
    <vehicle id="2_9" x="987.80" y="992.82" z="0.75" angle="-10.54" speed="12.36" type="passenger" length="4.50" width="1.80" height="1.50"/>
  </timestep>
  <timestep time="1.70">
    <vehicle id="2_1" x="990.69" y="1005.70" z="0.75" angle="-109.66" speed="0.00" type="passenger" length="4.50" width="1.80" height="1.50"/>
    <vehicle id="2_10" x="960.13" y="997.80" z="0.75" angle="-10.14" speed="12.18" type="passenger" length="4.50" width="1.80" height="1.50"/>
    <vehicle id="2_11" x="1012.36" y="994.82" z="0.75" angle="170.97" speed="13.80" type="passenger" length="4.50" width="1.80" height="1.50"/>
    <vehicle id="2_2" x="993.52" y="981.84" z="0.75" angle="87.26" speed="0.00" type="passenger" length="4.50" width="1.80" height="1.50"/>
    <vehicle id="2_3" x="992.26" y="972.96" z="0.75" angle="-93.62" speed="0.00" type="passenger" length="4.50" width="1.80" height="1.50"/>
    <vehicle id="2_4" x="1026.93" y="999.48" z="0.75" angle="-102.04" speed="0.22" type="passenger" length="4.50" width="1.80" height="1.50"/>
    <vehicle id="2_6" x="991.59" y="998.10" z="0.75" angle="175.96" speed="9.76" type="passenger" length="4.50" width="1.80" height="1.50"/>
    <vehicle id="2_7" x="939.00" y="1005.92" z="0.75" angle="172.00" speed="11.82" type="passenger" length="4.50" width="1.80" height="1.50"/>
    <vehicle id="2_8" x="994.37" y="987.23" z="0.75" angle="-18.22" speed="6.83" type="passenger" length="4.50" width="1.80" height="1.50"/>
    <vehicle id="2_9" x="989.01" y="992.59" z="0.75" angle="-10.54" speed="12.39" type="passenger" length="4.50" width="1.80" height="1.50"/>
  </timestep>
  <timestep time="1.80">
    <vehicle id="2_1" x="990.69" y="1005.70" z="0.75" angle="-109.66" speed="0.00" type="passenger" length="4.50" width="1.80" height="1.50"/>
    <vehicle id="2_10" x="961.33" y="997.59" z="0.75" angle="-10.20" speed="12.17" type="passenger" length="4.50" width="1.80" height="1.50"/>
    <vehicle id="2_11" x="1011.00" y="995.04" z="0.75" angle="170.91" speed="13.76" type="passenger" length="4.50" width="1.80" height="1.50"/>
    <vehicle id="2_2" x="993.52" y="981.84" z="0.75" angle="87.26" speed="0.00" type="passenger" length="4.50" width="1.80" height="1.50"/>
    <vehicle id="2_3" x="992.26" y="972.96" z="0.75" angle="-93.56" speed="0.00" type="passenger" length="4.50" width="1.80" height="1.50"/>
    <vehicle id="2_4" x="1026.93" y="999.46" z="0.75" angle="-102.04" speed="0.17" type="passenger" length="4.50" width="1.80" height="1.50"/>
    <vehicle id="2_6" x="990.61" y="998.17" z="0.75" angle="175.73" speed="9.91" type="passenger" length="4.50" width="1.80" height="1.50"/>
    <vehicle id="2_7" x="937.83" y="1006.09" z="0.75" angle="172.00" speed="11.81" type="passenger" length="4.50" width="1.80" height="1.50"/>
    <vehicle id="2_8" x="995.01" y="986.99" z="0.75" angle="-19.19" speed="6.74" type="passenger" length="4.50" width="1.80" height="1.50"/>
    <vehicle id="2_9" x="990.23" y="992.36" z="0.75" angle="-10.54" speed="12.41" type="passenger" length="4.50" width="1.80" height="1.50"/>
  </timestep>
  <timestep time="1.90">
    <vehicle id="2_1" x="990.69" y="1005.70" z="0.75" angle="-109.66" speed="0.00" type="passenger" length="4.50" width="1.80" height="1.50"/>
    <vehicle id="2_10" x="962.53" y="997.37" z="0.75" angle="-10.26" speed="12.15" type="passenger" length="4.50" width="1.80" height="1.50"/>
    <vehicle id="2_11" x="1009.64" y="995.26" z="0.75" angle="170.86" speed="13.71" type="passenger" length="4.50" width="1.80" height="1.50"/>
    <vehicle id="2_2" x="993.52" y="981.84" z="0.75" angle="87.26" speed="0.00" type="passenger" length="4.50" width="1.80" height="1.50"/>
    <vehicle id="2_3" x="992.26" y="972.96" z="0.75" angle="-93.56" speed="0.00" type="passenger" length="4.50" width="1.80" height="1.50"/>
    <vehicle id="2_4" x="1026.92" y="999.45" z="0.75" angle="-102.04" speed="0.13" type="passenger" length="4.50" width="1.80" height="1.50"/>
    <vehicle id="2_6" x="989.62" y="998.25" z="0.75" angle="175.50" speed="10.06" type="passenger" length="4.50" width="1.80" height="1.50"/>
    <vehicle id="2_7" x="936.66" y="1006.25" z="0.75" angle="172.00" speed="11.81" type="passenger" length="4.50" width="1.80" height="1.50"/>
    <vehicle id="2_8" x="995.64" y="986.75" z="0.75" angle="-20.23" speed="6.65" type="passenger" length="4.50" width="1.80" height="1.50"/>
    <vehicle id="2_9" x="991.45" y="992.14" z="0.75" angle="-10.54" speed="12.44" type="passenger" length="4.50" width="1.80" height="1.50"/>
  </timestep>
  <timestep time="2.00">
    <vehicle id="2_1" x="990.69" y="1005.70" z="0.75" angle="-109.66" speed="0.00" type="passenger" length="4.50" width="1.80" height="1.50"/>
    <vehicle id="2_10" x="963.73" y="997.15" z="0.75" angle="-10.31" speed="12.14" type="passenger" length="4.50" width="1.80" height="1.50"/>
    <vehicle id="2_11" x="1008.28" y="995.48" z="0.75" angle="170.86" speed="13.67" type="passenger" length="4.50" width="1.80" height="1.50"/>
    <vehicle id="2_2" x="993.52" y="981.84" z="0.75" angle="87.26" speed="0.00" type="passenger" length="4.50" width="1.80" height="1.50"/>