<?xml version="1.0" ?>
<fcd-export>
  <timestep time="0.00">
    <vehicle id="0_1" x="1028.29" y="1005.10" z="0.75" angle="-105.48" speed="0.00" type="passenger" length="4.50" width="1.80" height="1.50"/>
    <vehicle id="0_10" x="1023.01" y="1008.34" z="0.75" angle="-117.17" speed="1.95" type="passenger" length="4.50" width="1.80" height="1.50"/>
    <vehicle id="0_2" x="964.96" y="999.23" z="0.75" angle="159.80" speed="13.08" type="passenger" length="4.50" width="1.80" height="1.50"/>
    <vehicle id="0_3" x="1026.04" y="997.51" z="0.75" angle="-103.42" speed="0.00" type="passenger" length="4.50" width="1.80" height="1.50"/>
    <vehicle id="0_4" x="992.87" y="982.43" z="0.75" angle="87.20" speed="0.00" type="passenger" length="4.50" width="1.80" height="1.50"/>
    <vehicle id="0_5" x="1029.90" y="1012.82" z="0.75" angle="-103.36" speed="0.00" type="passenger" length="4.50" width="1.80" height="1.50"/>
    <vehicle id="0_6" x="1016.58" y="1001.13" z="0.75" angle="-134.53" speed="0.21" type="passenger" length="4.50" width="1.80" height="1.50"/>
    <vehicle id="0_7" x="1010.93" y="970.13" z="0.75" angle="-75.80" speed="8.66" type="passenger" length="4.50" width="1.80" height="1.50"/>
    <vehicle id="0_8" x="937.25" y="1005.87" z="0.75" angle="169.82" speed="12.32" type="passenger" length="4.50" width="1.80" height="1.50"/>
    <vehicle id="0_9" x="981.96" y="998.17" z="0.75" angle="169.77" speed="13.48" type="passenger" length="4.50" width="1.80" height="1.50"/>
  </timestep>
  <timestep time="0.10">
    <vehicle id="0_1" x="1028.29" y="1005.10" z="0.75" angle="-105.48" speed="0.00" type="passenger" length="4.50" width="1.80" height="1.50"/>
    <vehicle id="0_10" x="1022.91" y="1008.17" z="0.75" angle="-117.23" speed="1.81" type="passenger" length="4.50" width="1.80" height="1.50"/>
    <vehicle id="0_2" x="963.73" y="999.66" z="0.75" angle="160.54" speed="13.25" type="passenger" length="4.50" width="1.80" height="1.50"/>
    <vehicle id="0_3" x="1026.04" y="997.51" z="0.75" angle="-103.42" speed="0.00" type="passenger" length="4.50" width="1.80" height="1.50"/>
    <vehicle id="0_4" x="992.87" y="982.43" z="0.75" angle="87.20" speed="0.00" type="passenger" length="4.50" width="1.80" height="1.50"/>
    <vehicle id="0_5" x="1029.90" y="1012.82" z="0.75" angle="-103.36" speed="0.00" type="passenger" length="4.50" width="1.80" height="1.50"/>
    <vehicle id="0_6" x="1016.56" y="1001.12" z="0.75" angle="-134.53" speed="0.20" type="passenger" length="4.50" width="1.80" height="1.50"/>
    <vehicle id="0_7" x="1011.10" y="969.28" z="0.75" angle="-77.18" speed="8.73" type="passenger" length="4.50" width="1.80" height="1.50"/>
    <vehicle id="0_9" x="980.64" y="998.41" z="0.75" angle="169.82" speed="13.43" type="passenger" length="4.50" width="1.80" height="1.50"/>
  </timestep>
  <timestep time="0.20">
    <vehicle id="0_1" x="1028.29" y="1005.10" z="0.75" angle="-105.48" speed="0.00" type="passenger" length="4.50" width="1.80" height="1.50"/>
    <vehicle id="0_10" x="1022.83" y="1008.01" z="0.75" angle="-117.28" speed="1.68" type="passenger" length="4.50" width="1.80" height="1.50"/>
    <vehicle id="0_2" x="962.47" y="1000.09" z="0.75" angle="161.23" speed="13.41" type="passenger" length="4.50" width="1.80" height="1.50"/>
    <vehicle id="0_3" x="1026.04" y="997.51" z="0.75" angle="-103.42" speed="0.00" type="passenger" length="4.50" width="1.80" height="1.50"/>
    <vehicle id="0_4" x="992.87" y="982.43" z="0.75" angle="87.20" speed="0.00" type="passenger" length="4.50" width="1.80" height="1.50"/>
    <vehicle id="0_5" x="1029.90" y="1012.82" z="0.75" angle="-103.36" speed="0.00" type="passenger" length="4.50" width="1.80" height="1.50"/>
    <vehicle id="0_6" x="1016.55" y="1001.10" z="0.75" angle="-134.53" speed="0.20" type="passenger" length="4.50" width="1.80" height="1.50"/>
    <vehicle id="0_7" x="1011.26" y="968.42" z="0.75" angle="-78.50" speed="8.79" type="passenger" length="4.50" width="1.80" height="1.50"/>
    <vehicle id="0_9" x="979.32" y="998.65" z="0.75" angle="169.88" speed="13.38" type="passenger" length="4.50" width="1.80" height="1.50"/>
  </timestep>
  <timestep time="0.30">
    <vehicle id="0_1" x="1028.29" y="1005.10" z="0.75" angle="-105.48" speed="0.00" type="passenger" length="4.50" width="1.80" height="1.50"/>
    <vehicle id="0_10" x="1022.75" y="1007.86" z="0.75" angle="-117.40" speed="1.54" type="passenger" length="4.50" width="1.80" height="1.50"/>
    <vehicle id="0_2" x="961.20" y="1000.51" z="0.75" angle="161.86" speed="13.56" type="passenger" length="4.50" width="1.80" height="1.50"/>
    <vehicle id="0_3" x="1026.04" y="997.51" z="0.75" angle="-103.42" speed="0.00" type="passenger" length="4.50" width="1.80" height="1.50"/>
    <vehicle id="0_4" x="992.87" y="982.43" z="0.75" angle="87.20" speed="0.00" type="passenger" length="4.50" width="1.80" height="1.50"/>
    <vehicle id="0_5" x="1029.90" y="1012.82" z="0.75" angle="-103.36" speed="0.00" type="passenger" length="4.50" width="1.80" height="1.50"/>
    <vehicle id="0_6" x="1016.53" y="1001.09" z="0.75" angle="-134.59" speed="0.19" type="passenger" length="4.50" width="1.80" height="1.50"/>
    <vehicle id="0_7" x="1011.40" y="967.55" z="0.75" angle="-79.64" speed="8.83" type="passenger" length="4.50" width="1.80" height="1.50"/>
    <vehicle id="0_9" x="978.00" y="998.88" z="0.75" angle="169.88" speed="13.33" type="passenger" length="4.50" width="1.80" height="1.50"/>
  </timestep>
  <timestep time="0.40">
    <vehicle id="0_1" x="1028.29" y="1005.10" z="0.75" angle="-105.48" speed="0.00" type="passenger" length="4.50" width="1.80" height="1.50"/>
    <vehicle id="0_10" x="1022.68" y="1007.72" z="0.75" angle="-117.51" speed="1.41" type="passenger" length="4.50" width="1.80" height="1.50"/>
    <vehicle id="0_11" x="1035.37" y="988.26" z="0.75" angle="170.40" speed="12.28" type="passenger" length="4.50" width="1.80" height="1.50"/>
    <vehicle id="0_2" x="959.90" y="1000.91" z="0.75" angle="162.49" speed="13.69" type="passenger" length="4.50" width="1.80" height="1.50"/>
    <vehicle id="0_3" x="1026.04" y="997.51" z="0.75" angle="-103.42" speed="0.00" type="passenger" length="4.50" width="1.80" height="1.50"/>
    <vehicle id="0_4" x="992.87" y="982.43" z="0.75" angle="87.20" speed="0.00" type="passenger" length="4.50" width="1.80" height="1.50"/>
    <vehicle id="0_5" x="1029.90" y="1012.82" z="0.75" angle="-103.36" speed="0.00" type="passenger" length="4.50" width="1.80" height="1.50"/>
    <vehicle id="0_6" x="1016.52" y="1001.08" z="0.75" angle="-134.59" speed="0.18" type="passenger" length="4.50" width="1.80" height="1.50"/>
    <vehicle id="0_7" x="1011.53" y="966.67" z="0.75" angle="-80.73" speed="8.87" type="passenger" length="4.50" width="1.80" height="1.50"/>
    <vehicle id="0_9" x="976.69" y="999.12" z="0.75" angle="169.94" speed="13.28" type="passenger" length="4.50" width="1.80" height="1.50"/>
  </timestep>
  <timestep time="0.50">
    <vehicle id="0_1" x="1028.29" y="1005.10" z="0.75" angle="-105.48" speed="0.00" type="passenger" length="4.50" width="1.80" height="1.50"/>
    <vehicle id="0_10" x="1022.61" y="1007.60" z="0.75" angle="-117.57" speed="1.28" type="passenger" length="4.50" width="1.80" height="1.50"/>
    <vehicle id="0_11" x="1034.16" y="988.47" z="0.75" angle="170.40" speed="12.30" type="passenger" length="4.50" width="1.80" height="1.50"/>
    <vehicle id="0_2" x="958.59" y="1001.31" z="0.75" angle="163.06" speed="13.82" type="passenger" length="4.50" width="1.80" height="1.50"/>
    <vehicle id="0_3" x="1026.04" y="997.51" z="0.75" angle="-103.42" speed="0.00" type="passenger" length="4.50" width="1.80" height="1.50"/>
    <vehicle id="0_4" x="992.87" y="982.43" z="0.75" angle="87.20" speed="0.00" type="passenger" length="4.50" width="1.80" height="1.50"/>
    <vehicle id="0_5" x="1029.90" y="1012.82" z="0.75" angle="-103.36" speed="0.00" type="passenger" length="4.50" width="1.80" height="1.50"/>
    <vehicle id="0_6" x="1016.51" y="1001.07" z="0.75" angle="-134.65" speed="0.16" type="passenger" length="4.50" width="1.80" height="1.50"/>
    <vehicle id="0_7" x="1011.64" y="965.79" z="0.75" angle="-81.76" speed="8.88" type="passenger" length="4.50" width="1.80" height="1.50"/>
    <vehicle id="0_9" x="975.38" y="999.35" z="0.75" angle="169.94" speed="13.23" type="passenger" length="4.50" width="1.80" height="1.50"/>
  </timestep>
  <timestep time="0.60">
    <vehicle id="0_1" x="1028.29" y="1005.10" z="0.75" angle="-105.48" speed="0.00" type="passenger" length="4.50" width="1.80" height="1.50"/>
    <vehicle id="0_10" x="1022.55" y="1007.49" z="0.75" angle="-117.69" speed="1.15" type="passenger" length="4.50" width="1.80" height="1.50"/>
    <vehicle id="0_11" x="1032.94" y="988.68" z="0.75" angle="170.34" speed="12.31" type="passenger" length="4.50" width="1.80" height="1.50"/>
    <vehicle id="0_2" x="957.27" y="1001.71" z="0.75" angle="163.64" speed="13.92" type="passenger" length="4.50" width="1.80" height="1.50"/>
    <vehicle id="0_3" x="1026.04" y="997.51" z="0.75" angle="-103.42" speed="0.00" type="passenger" length="4.50" width="1.80" height="1.50"/>
    <vehicle id="0_4" x="992.87" y="982.43" z="0.75" angle="87.20" speed="0.00" type="passenger" length="4.50" width="1.80" height="1.50"/>
    <vehicle id="0_5" x="1029.90" y="1012.82" z="0.75" angle="-103.36" speed="0.00" type="passenger" length="4.50" width="1.80" height="1.50"/>
    <vehicle id="0_6" x="1016.50" y="1001.05" z="0.75" angle="-134.65" speed="0.15" type="passenger" length="4.50" width="1.80" height="1.50"/>
    <vehicle id="0_7" x="1011.74" y="964.91" z="0.75" angle="-82.79" speed="8.89" type="passenger" length="4.50" width="1.80" height="1.50"/>
    <vehicle id="0_9" x="974.08" y="999.58" z="0.75" angle="169.94" speed="13.18" type="passenger" length="4.50" width="1.80" height="1.50"/>
  </timestep>
  <timestep time="0.70">
    <vehicle id="0_1" x="1028.29" y="1005.10" z="0.75" angle="-105.48" speed="0.00" type="passenger" length="4.50" width="1.80" height="1.50"/>
    <vehicle id="0_10" x="1022.49" y="1007.39" z="0.75" angle="-117.80" speed="1.04" type="passenger" length="4.50" width="1.80" height="1.50"/>
    <vehicle id="0_11" x="1031.73" y="988.88" z="0.75" angle="170.28" speed="12.33" type="passenger" length="4.50" width="1.80" height="1.50"/>
    <vehicle id="0_2" x="955.93" y="1002.09" z="0.75" angle="164.15" speed="14.02" type="passenger" length="4.50" width="1.80" height="1.50"/>
    <vehicle id="0_3" x="1026.04" y="997.51" z="0.75" angle="-103.42" speed="0.00" type="passenger" length="4.50" width="1.80" height="1.50"/>
    <vehicle id="0_4" x="992.87" y="982.43" z="0.75" angle="87.20" speed="0.00" type="passenger" length="4.50" width="1.80" height="1.50"/>
    <vehicle id="0_5" x="1029.90" y="1012.82" z="0.75" angle="-103.36" speed="0.00" type="passenger" length="4.50" width="1.80" height="1.50"/>
    <vehicle id="0_6" x="1016.49" y="1001.04" z="0.75" angle="-134.70" speed="0.15" type="passenger" length="4.50" width="1.80" height="1.50"/>
    <vehicle id="0_7" x="1011.83" y="964.02" z="0.75" angle="-83.77" speed="8.89" type="passenger" length="4.50" width="1.80" height="1.50"/>
    <vehicle id="0_9" x="972.78" y="999.81" z="0.75" angle="169.94" speed="13.13" type="passenger" length="4.50" width="1.80" height="1.50"/>
  </timestep>
  <timestep time="0.80">
    <vehicle id="0_1" x="1028.29" y="1005.10" z="0.75" angle="-105.48" speed="0.00" type="passenger" length="4.50" width="1.80" height="1.50"/>
    <vehicle id="0_10" x="1022.44" y="1007.30" z="0.75" angle="-117.97" speed="0.93" type="passenger" length="4.50" width="1.80" height="1.50"/>
    <vehicle id="0_11" x="1030.52" y="989.09" z="0.75" angle="170.23" speed="12.34" type="passenger" length="4.50" width="1.80" height="1.50"/>
    <vehicle id="0_2" x="954.58" y="1002.46" z="0.75" angle="164.61" speed="14.10" type="passenger" length="4.50" width="1.80" height="1.50"/>
    <vehicle id="0_3" x="1026.04" y="997.51" z="0.75" angle="-103.42" speed="0.00" type="passenger" length="4.50" width="1.80" height="1.50"/>
    <vehicle id="0_4" x="992.87" y="982.43" z="0.75" angle="87.20" speed="0.00" type="passenger" length="4.50" width="1.80" height="1.50"/>
    <vehicle id="0_5" x="1029.90" y="1012.82" z="0.75" angle="-103.36" speed="0.00" type="passenger" length="4.50" width="1.80" height="1.50"/>
    <vehicle id="0_6" x="1016.48" y="1001.03" z="0.75" angle="-134.70" speed="0.14" type="passenger" length="4.50" width="1.80" height="1.50"/>
    <vehicle id="0_9" x="971.49" y="1000.04" z="0.75" angle="169.94" speed="13.08" type="passenger" length="4.50" width="1.80" height="1.50"/>
  </timestep>
  <timestep time="0.90">
    <vehicle id="0_1" x="1028.29" y="1005.10" z="0.75" angle="-105.48" speed="0.00" type="passenger" length="4.50" width="1.80" height="1.50"/>
    <vehicle id="0_10" x="1022.39" y="1007.22" z="0.75" angle="-118.03" speed="0.84" type="passenger" length="4.50" width="1.80" height="1.50"/>
    <vehicle id="0_11" x="1029.30" y="989.30" z="0.75" angle="170.23" speed="12.35" type="passenger" length="4.50" width="1.80" height="1.50"/>
    <vehicle id="0_2" x="953.22" y="1002.82" z="0.75" angle="165.07" speed="14.16" type="passenger" length="4.50" width="1.80" height="1.50"/>
    <vehicle id="0_3" x="1026.04" y="997.51" z="0.75" angle="-103.36" speed="0.00" type="passenger" length="4.50" width="1.80" height="1.50"/>
    <vehicle id="0_4" x="992.87" y="982.43" z="0.75" angle="87.20" speed="0.00" type="passenger" length="4.50" width="1.80" height="1.50"/>
    <vehicle id="0_5" x="1029.90" y="1012.82" z="0.75" angle="-103.36" speed="0.00" type="passenger" length="4.50" width="1.80" height="1.50"/>
    <vehicle id="0_6" x="1016.46" y="1001.02" z="0.75" angle="-134.70" speed="0.14" type="passenger" length="4.50" width="1.80" height="1.50"/>
    <vehicle id="0_9" x="970.20" y="1000.27" z="0.75" angle="169.94" speed="13.03" type="passenger" length="4.50" width="1.80" height="1.50"/>
  </timestep>
  <timestep time="1.00">
    <vehicle id="0_1" x="1028.29" y="1005.10" z="0.75" angle="-105.48" speed="0.00" type="passenger" length="4.50" width="1.80" height="1.50"/>
    <vehicle id="0_10" x="1022.35" y="1007.14" z="0.75" angle="-118.14" speed="0.76" type="passenger" length="4.50" width="1.80" height="1.50"/>
    <vehicle id="0_11" x="1028.08" y="989.51" z="0.75" angle="170.17" speed="12.36" type="passenger" length="4.50" width="1.80" height="1.50"/>
    <vehicle id="0_2" x="951.84" y="1003.18" z="0.75" angle="165.53" speed="14.22" type="passenger" length="4.50" width="1.80" height="1.50"/>
    <vehicle id="0_3" x="1026.04" y="997.51" z="0.75" angle="-103.36" speed="0.00" type="passenger" length="4.50" width="1.80" height="1.50"/>
    <vehicle id="0_4" x="992.87" y="982.43" z="0.75" angle="87.20" speed="0.00" type="passenger" length="4.50" width="1.80" height="1.50"/>
    <vehicle id="0_5" x="1029.90" y="1012.82" z="0.75" angle="-103.36" speed="0.00" type="passenger" length="4.50" width="1.80" height="1.50"/>
    <vehicle id="0_6" x="1016.45" y="1001.01" z="0.75" angle="-134.76" speed="0.14" type="passenger" length="4.50" width="1.80" height="1.50"/>
    <vehicle id="0_9" x="968.92" y="1000.50" z="0.75" angle="169.94" speed="12.98" type="passenger" length="4.50" width="1.80" height="1.50"/>
  </timestep>
  <timestep time="1.10">
    <vehicle id="0_1" x="1028.29" y="1005.10" z="0.75" angle="-105.48" speed="0.00" type="passenger" length="4.50" width="1.80" height="1.50"/>
    <vehicle id="0_10" x="1022.31" y="1007.08" z="0.75" angle="-118.26" speed="0.69" type="passenger" length="4.50" width="1.80" height="1.50"/>
    <vehicle id="0_11" x="1026.87" y="989.73" z="0.75" angle="170.11" speed="12.37" type="passenger" length="4.50" width="1.80" height="1.50"/>
    <vehicle id="0_2" x="950.47" y="1003.52" z="0.75" angle="165.93" speed="14.26" type="passenger" length="4.50" width="1.80" height="1.50"/>
    <vehicle id="0_3" x="1026.04" y="997.51" z="0.75" angle="-103.36" speed="0.00" type="passenger" length="4.50" width="1.80" height="1.50"/>
    <vehicle id="0_4" x="992.87" y="982.43" z="0.75" angle="87.15" speed="0.00" type="passenger" length="4.50" width="1.80" height="1.50"/>
    <vehicle id="0_5" x="1029.90" y="1012.82" z="0.75" angle="-103.36" speed="0.00" type="passenger" length="4.50" width="1.80" height="1.50"/>
    <vehicle id="0_6" x="1016.44" y="1001.00" z="0.75" angle="-134.76" speed="0.15" type="passenger" length="4.50" width="1.80" height="1.50"/>
    <vehicle id="0_9" x="967.64" y="1000.72" z="0.75" angle="169.94" speed="12.92" type="passenger" length="4.50" width="1.80" height="1.50"/>
  </timestep>
  <timestep time="1.20">
    <vehicle id="0_1" x="1028.29" y="1005.10" z="0.75" angle="-105.48" speed="0.00" type="passenger" length="4.50" width="1.80" height="1.50"/>
    <vehicle id="0_10" x="1022.27" y="1007.02" z="0.75" angle="-118.37" speed="0.64" type="passenger" length="4.50" width="1.80" height="1.50"/>
    <vehicle id="0_11" x="1025.65" y="989.94" z="0.75" angle="170.05" speed="12.38" type="passenger" length="4.50" width="1.80" height="1.50"/>
    <vehicle id="0_2" x="949.08" y="1003.86" z="0.75" angle="166.27" speed="14.29" type="passenger" length="4.50" width="1.80" height="1.50"/>
    <vehicle id="0_3" x="1026.04" y="997.51" z="0.75" angle="-103.36" speed="0.00" type="passenger" length="4.50" width="1.80" height="1.50"/>
    <vehicle id="0_4" x="992.87" y="982.43" z="0.75" angle="87.15" speed="0.00" type="passenger" length="4.50" width="1.80" height="1.50"/>
    <vehicle id="0_5" x="1029.90" y="1012.82" z="0.75" angle="-103.36" speed="0.00" type="passenger" length="4.50" width="1.80" height="1.50"/>
    <vehicle id="0_6" x="1016.43" y="1000.99" z="0.75" angle="-134.82" speed="0.17" type="passenger" length="4.50" width="1.80" height="1.50"/>
    <vehicle id="0_9" x="966.37" y="1000.95" z="0.75" angle="169.94" speed="12.87" type="passenger" length="4.50" width="1.80" height="1.50"/>
  </timestep>
  <timestep time="1.30">
    <vehicle id="0_1" x="1028.29" y="1005.10" z="0.75" angle="-105.48" speed="0.00" type="passenger" length="4.50" width="1.80" height="1.50"/>
    <vehicle id="0_10" x="1022.24" y="1006.96" z="0.75" angle="-118.43" speed="0.60" type="passenger" length="4.50" width="1.80" height="1.50"/>
    <vehicle id="0_11" x="1024.43" y="990.15" z="0.75" angle="170.05" speed="12.39" type="passenger" length="4.50" width="1.80" height="1.50"/>
    <vehicle id="0_2" x="947.69" y="1004.19" z="0.75" angle="166.62" speed="14.32" type="passenger" length="4.50" width="1.80" height="1.50"/>
    <vehicle id="0_3" x="1026.05" y="997.53" z="0.75" angle="-103.48" speed="0.19" type="passenger" length="4.50" width="1.80" height="1.50"/>
    <vehicle id="0_4" x="992.87" y="982.43" z="0.75" angle="87.15" speed="0.00" type="passenger" length="4.50" width="1.80" height="1.50"/>
    <vehicle id="0_5" x="1029.90" y="1012.82" z="0.75" angle="-103.36" speed="0.00" type="passenger" length="4.50" width="1.80" height="1.50"/>
    <vehicle id="0_6" x="1016.42" y="1000.98" z="0.75" angle="-134.82" speed="0.19" type="passenger" length="4.50" width="1.80" height="1.50"/>
    <vehicle id="0_9" x="965.10" y="1001.17" z="0.75" angle="169.94" speed="12.82" type="passenger" length="4.50" width="1.80" height="1.50"/>
  </timestep>
  <timestep time="1.40">
    <vehicle id="0_1" x="1028.29" y="1005.10" z="0.75" angle="-105.48" speed="0.00" type="passenger" length="4.50" width="1.80" height="1.50"/>
    <vehicle id="0_10" x="1022.21" y="1006.91" z="0.75" angle="-118.54" speed="0.58" type="passenger" length="4.50" width="1.80" height="1.50"/>
    <vehicle id="0_11" x="1023.21" y="990.37" z="0.75" angle="170.00" speed="12.40" type="passenger" length="4.50" width="1.80" height="1.50"/>
    <vehicle id="0_2" x="946.29" y="1004.52" z="0.75" angle="166.90" speed="14.33" type="passenger" length="4.50" width="1.80" height="1.50"/>
    <vehicle id="0_3" x="1026.04" y="997.51" z="0.75" angle="-103.53" speed="0.34" type="passenger" length="4.50" width="1.80" height="1.50"/>
    <vehicle id="0_4" x="992.87" y="982.43" z="0.75" angle="87.15" speed="0.00" type="passenger" length="4.50" width="1.80" height="1.50"/>
    <vehicle id="0_5" x="1029.90" y="1012.82" z="0.75" angle="-103.36" speed="0.00" type="passenger" length="4.50" width="1.80" height="1.50"/>
    <vehicle id="0_6" x="1016.41" y="1000.97" z="0.75" angle="-134.82" speed="0.21" type="passenger" length="4.50" width="1.80" height="1.50"/>
    <vehicle id="0_9" x="963.84" y="1001.40" z="0.75" angle="169.94" speed="12.76" type="passenger" length="4.50" width="1.80" height="1.50"/>
  </timestep>
  <timestep time="1.50">
    <vehicle id="0_1" x="1028.29" y="1005.10" z="0.75" angle="-105.48" speed="0.00" type="passenger" length="4.50" width="1.80" height="1.50"/>
    <vehicle id="0_10" x="1022.18" y="1006.86" z="0.75" angle="-118.60" speed="0.56" type="passenger" length="4.50" width="1.80" height="1.50"/>
    <vehicle id="0_11" x="1021.99" y="990.59" z="0.75" angle="170.00" speed="12.42" type="passenger" length="4.50" width="1.80" height="1.50"/>
    <vehicle id="0_2" x="944.90" y="1004.84" z="0.75" angle="167.19" speed="14.35" type="passenger" length="4.50" width="1.80" height="1.50"/>
    <vehicle id="0_3" x="1026.03" y="997.48" z="0.75" angle="-103.59" speed="0.52" type="passenger" length="4.50" width="1.80" height="1.50"/>
    <vehicle id="0_4" x="992.87" y="982.43" z="0.75" angle="87.15" speed="0.00" type="passenger" length="4.50" width="1.80" height="1.50"/>
    <vehicle id="0_5" x="1029.90" y="1012.82" z="0.75" angle="-103.36" speed="0.00" type="passenger" length="4.50" width="1.80" height="1.50"/>
    <vehicle id="0_6" x="1016.39" y="1000.96" z="0.75" angle="-134.87" speed="0.25" type="passenger" length="4.50" width="1.80" height="1.50"/>
    <vehicle id="0_9" x="962.58" y="1001.62" z="0.75" angle="169.94" speed="12.71" type="passenger" length="4.50" width="1.80" height="1.50"/>
  </timestep>
  <timestep time="1.60">
    <vehicle id="0_1" x="1028.29" y="1005.10" z="0.75" angle="-105.48" speed="0.00" type="passenger" length="4.50" width="1.80" height="1.50"/>
    <vehicle id="0_10" x="1022.15" y="1006.81" z="0.75" angle="-118.66" speed="0.56" type="passenger" length="4.50" width="1.80" height="1.50"/>
    <vehicle id="0_11" x="1020.76" y="990.80" z="0.75" angle="169.94" speed="12.43" type="passenger" length="4.50" width="1.80" height="1.50"/>
    <vehicle id="0_2" x="943.50" y="1005.15" z="0.75" angle="167.42" speed="14.35" type="passenger" length="4.50" width="1.80" height="1.50"/>
    <vehicle id="0_3" x="1026.02" y="997.43" z="0.75" angle="-103.65" speed="0.71" type="passenger" length="4.50" width="1.80" height="1.50"/>
    <vehicle id="0_4" x="992.87" y="982.43" z="0.75" angle="87.20" speed="0.00" type="passenger" length="4.50" width="1.80" height="1.50"/>
    <vehicle id="0_5" x="1029.90" y="1012.82" z="0.75" angle="-103.36" speed="0.00" type="passenger" length="4.50" width="1.80" height="1.50"/>
    <vehicle id="0_6" x="1016.37" y="1000.94" z="0.75" angle="-134.93" speed="0.29" type="passenger" length="4.50" width="1.80" height="1.50"/>
    <vehicle id="0_9" x="961.33" y="1001.84" z="0.75" angle="169.94" speed="12.66" type="passenger" length="4.50" width="1.80" height="1.50"/>
  </timestep>
  <timestep time="1.70">
    <vehicle id="0_1" x="1028.29" y="1005.10" z="0.75" angle="-105.48" speed="0.00" type="passenger" length="4.50" width="1.80" height="1.50"/>
    <vehicle id="0_10" x="1022.13" y="1006.77" z="0.75" angle="-118.72" speed="0.56" type="passenger" length="4.50" width="1.80" height="1.50"/>
    <vehicle id="0_11" x="1019.54" y="991.02" z="0.75" angle="169.94" speed="12.44" type="passenger" length="4.50" width="1.80" height="1.50"/>
    <vehicle id="0_2" x="942.10" y="1005.46" z="0.75" angle="167.59" speed="14.35" type="passenger" length="4.50" width="1.80" height="1.50"/>
    <vehicle id="0_3" x="1026.00" y="997.36" z="0.75" angle="-103.59" speed="0.91" type="passenger" length="4.50" width="1.80" height="1.50"/>
    <vehicle id="0_4" x="992.87" y="982.43" z="0.75" angle="87.26" speed="0.00" type="passenger" length="4.50" width="1.80" height="1.50"/>
    <vehicle id="0_5" x="1029.90" y="1012.82" z="0.75" angle="-103.36" speed="0.00" type="passenger" length="4.50" width="1.80" height="1.50"/>
    <vehicle id="0_6" x="1016.35" y="1000.92" z="0.75" angle="-134.93" speed="0.35" type="passenger" length="4.50" width="1.80" height="1.50"/>
    <vehicle id="0_9" x="960.08" y="1002.07" z="0.75" angle="169.94" speed="12.62" type="passenger" length="4.50" width="1.80" height="1.50"/>
  </timestep>
  <timestep time="1.80">
    <vehicle id="0_1" x="1028.29" y="1005.10" z="0.75" angle="-105.48" speed="0.00" type="passenger" length="4.50" width="1.80" height="1.50"/>
    <vehicle id="0_10" x="1022.10" y="1006.72" z="0.75" angle="-118.83" speed="0.58" type="passenger" length="4.50" width="1.80" height="1.50"/>
    <vehicle id="0_11" x="1018.32" y="991.24" z="0.75" angle="169.88" speed="12.46" type="passenger" length="4.50" width="1.80" height="1.50"/>
    <vehicle id="0_2" x="940.69" y="1005.76" z="0.75" angle="167.76" speed="14.36" type="passenger" length="4.50" width="1.80" height="1.50"/>
    <vehicle id="0_3" x="1025.98" y="997.27" z="0.75" angle="-103.42" speed="1.12" type="passenger" length="4.50" width="1.80" height="1.50"/>
    <vehicle id="0_4" x="992.86" y="982.45" z="0.75" angle="87.32" speed="0.16" type="passenger" length="4.50" width="1.80" height="1.50"/>
    <vehicle id="0_5" x="1029.90" y="1012.82" z="0.75" angle="-103.36" speed="0.00" type="passenger" length="4.50" width="1.80" height="1.50"/>
    <vehicle id="0_6" x="1016.33" y="1000.89" z="0.75" angle="-134.99" speed="0.41" type="passenger" length="4.50" width="1.80" height="1.50"/>
    <vehicle id="0_9" x="958.84" y="1002.28" z="0.75" angle="169.94" speed="12.57" type="passenger" length="4.50" width="1.80" height="1.50"/>
  </timestep>
  <timestep time="1.90">
    <vehicle id="0_1" x="1028.29" y="1005.10" z="0.75" angle="-105.48" speed="0.00" type="passenger" length="4.50" width="1.80" height="1.50"/>
    <vehicle id="0_10" x="1022.07" y="1006.67" z="0.75" angle="-118.89" speed="0.61" type="passenger" length="4.50" width="1.80" height="1.50"/>
    <vehicle id="0_11" x="1017.09" y="991.46" z="0.75" angle="169.88" speed="12.47" type="passenger" length="4.50" width="1.80" height="1.50"/>
    <vehicle id="0_2" x="939.29" y="1006.07" z="0.75" angle="167.88" speed="14.35" type="passenger" length="4.50" width="1.80" height="1.50"/>
    <vehicle id="0_3" x="1025.96" y="997.16" z="0.75" angle="-103.19" speed="1.35" type="passenger" length="4.50" width="1.80" height="1.50"/>
    <vehicle id="0_4" x="992.86" y="982.47" z="0.75" angle="87.49" speed="0.21" type="passenger" length="4.50" width="1.80" height="1.50"/>
    <vehicle id="0_5" x="1029.90" y="1012.82" z="0.75" angle="-103.36" speed="0.00" type="passenger" length="4.50" width="1.80" height="1.50"/>
    <vehicle id="0_6" x="1016.30" y="1000.87" z="0.75" angle="-135.05" speed="0.48" type="passenger" length="4.50" width="1.80" height="1.50"/>
    <vehicle id="0_9" x="957.60" y="1002.50" z="0.75" angle="170.00" speed="12.54" type="passenger" length="4.50" width="1.80" height="1.50"/>
  </timestep>
  <timestep time="2.00">
    <vehicle id="0_1" x="1028.29" y="1005.10" z="0.75" angle="-105.48" speed="0.00" type="passenger" length="4.50" width="1.80" height="1.50"/>
    <vehicle id="0_10" x="1022.04" y="1006.62" z="0.75" angle="-118.95" speed="0.64" type="passenger" length="4.50" width="1.80" height="1.50"/>
    <vehicle id="0_11" x="1015.86" y="991.68" z="0.75" angle="169.82" speed="12.49" type="passenger" length="4.50" width="1.80" height="1.50"/>
    <vehicle id="0_2" x="937.88" y="1006.36" z="0.75" angle="167.99" speed="14.35" type="passenger" length="4.50" width="1.80" height="1.50"/>
    <vehicle id="0_3" x="1025.94" y="997.03" z="0.75" angle="-102.85" speed="1.58" type="passenger" length="4.50" width="1.80" height="1.50"/>
    <vehicle id="0_4" x="992.86" y="982.49" z="0.75" angle="87.66" speed="0.25" type="passenger" length="4.50" width="1.80" height="1.50"/>
    <vehicle id="0_5" x="1029.90" y="1012.82" z="0.75" angle="-103.36" speed="0.00" type="passenger" length="4.50" width="1.80" height="1.50"/>
    <vehicle id="0_6" x="1016.26" y="1000.83" z="0.75" angle="-135.10" speed="0.56" type="passenger" length="4.50" width="1.80" height="1.50"/>
    <vehicle id="0_9" x="956.37" y="1002.72" z="0.75" angle="170.00" speed="12.50" type="passenger" length="4.50" width="1.80" height="1.50"/>
  </timestep>
  <timestep time="2.10">
    <vehicle id="0_1" x="1028.29" y="1005.10" z="0.75" angle="-105.48" speed="0.00" type="passenger" length="4.50" width="1.80" height="1.50"/>
    <vehicle id="0_10" x="1022.00" y="1006.56" z="0.75" angle="-119.00" speed="0.68" type="passenger" length="4.50" width="1.80" height="1.50"/>
    <vehicle id="0_11" x="1014.63" y="991.90" z="0.75" angle="169.82" speed="12.50" type="passenger" length="4.50" width="1.80" height="1.50"/>
    <vehicle id="0_2" x="936.48" y="1006.66" z="0.75" angle="168.11" speed="14.35" type="passenger" length="4.50" width="1.80" height="1.50"/>
    <vehicle id="0_3" x="1025.91" y="996.87" z="0.75" angle="-102.44" speed="1.83" type="passenger" length="4.50" width="1.80" height="1.50"/>
    <vehicle id="0_4" x="992.85" y="982.51" z="0.75" angle="87.83" speed="0.28" type="passenger" length="4.50" width="1.80" height="1.50"/>
    <vehicle id="0_5" x="1029.90" y="1012.82" z="0.75" angle="-103.36" speed="0.00" type="passenger" length="4.50" width="1.80" height="1.50"/>
    <vehicle id="0_6" x="1016.22" y="1000.79" z="0.75" angle="-135.22" speed="0.65" type="passenger" length="4.50" width="1.80" height="1.50"/>
    <vehicle id="0_9" x="955.13" y="1002.94" z="0.75" angle="170.05" speed="12.48" type="passenger" length="4.50" width="1.80" height="1.50"/>
  </timestep>
  <timestep time="2.20">