<?xml version="1.0" ?>
<fcd-export>
  <timestep time="0.00">
    <vehicle id="1_1" x="1028.29" y="1005.10" z="0.75" angle="-105.48" speed="0.00" type="passenger" length="4.50" width="1.80" height="1.50"/>
    <vehicle id="1_10" x="995.48" y="995.68" z="0.75" angle="169.25" speed="13.95" type="passenger" length="4.50" width="1.80" height="1.50"/>
    <vehicle id="1_11" x="1024.20" y="1010.68" z="0.75" angle="-117.57" speed="3.13" type="passenger" length="4.50" width="1.80" height="1.50"/>
    <vehicle id="1_2" x="975.84" y="994.42" z="0.75" angle="150.29" speed="10.82" type="passenger" length="4.50" width="1.80" height="1.50"/>
    <vehicle id="1_3" x="1026.04" y="997.51" z="0.75" angle="-103.42" speed="0.00" type="passenger" length="4.50" width="1.80" height="1.50"/>
    <vehicle id="1_4" x="992.87" y="982.43" z="0.75" angle="87.20" speed="0.00" type="passenger" length="4.50" width="1.80" height="1.50"/>
    <vehicle id="1_5" x="1029.90" y="1012.82" z="0.75" angle="-103.36" speed="0.00" type="passenger" length="4.50" width="1.80" height="1.50"/>
    <vehicle id="1_6" x="1016.72" y="1001.27" z="0.75" angle="-134.24" speed="0.16" type="passenger" length="4.50" width="1.80" height="1.50"/>
    <vehicle id="1_7" x="1034.57" y="983.87" z="0.75" angle="-9.85" speed="10.71" type="passenger" length="4.50" width="1.80" height="1.50"/>
    <vehicle id="1_8" x="1008.10" y="977.75" z="0.75" angle="-55.52" speed="7.80" type="passenger" length="4.50" width="1.80" height="1.50"/>
    <vehicle id="1_9" x="949.37" y="1003.67" z="0.75" angle="169.60" speed="12.33" type="passenger" length="4.50" width="1.80" height="1.50"/>
  </timestep>
  <timestep time="0.10">
    <vehicle id="1_1" x="1028.29" y="1005.10" z="0.75" angle="-105.48" speed="0.00" type="passenger" length="4.50" width="1.80" height="1.50"/>
    <vehicle id="1_10" x="994.11" y="995.94" z="0.75" angle="169.31" speed="13.91" type="passenger" length="4.50" width="1.80" height="1.50"/>
    <vehicle id="1_11" x="1024.06" y="1010.40" z="0.75" angle="-117.46" speed="3.02" type="passenger" length="4.50" width="1.80" height="1.50"/>
    <vehicle id="1_2" x="974.88" y="994.93" z="0.75" angle="151.43" speed="11.08" type="passenger" length="4.50" width="1.80" height="1.50"/>
    <vehicle id="1_3" x="1026.04" y="997.51" z="0.75" angle="-103.42" speed="0.00" type="passenger" length="4.50" width="1.80" height="1.50"/>
    <vehicle id="1_4" x="992.87" y="982.43" z="0.75" angle="87.20" speed="0.00" type="passenger" length="4.50" width="1.80" height="1.50"/>
    <vehicle id="1_5" x="1029.90" y="1012.82" z="0.75" angle="-103.36" speed="0.00" type="passenger" length="4.50" width="1.80" height="1.50"/>
    <vehicle id="1_6" x="1016.71" y="1001.25" z="0.75" angle="-134.24" speed="0.17" type="passenger" length="4.50" width="1.80" height="1.50"/>
    <vehicle id="1_8" x="1008.49" y="977.07" z="0.75" angle="-57.87" speed="7.86" type="passenger" length="4.50" width="1.80" height="1.50"/>
    <vehicle id="1_9" x="948.16" y="1003.90" z="0.75" angle="169.60" speed="12.33" type="passenger" length="4.50" width="1.80" height="1.50"/>
  </timestep>
  <timestep time="0.20">
    <vehicle id="1_1" x="1028.29" y="1005.10" z="0.75" angle="-105.48" speed="0.00" type="passenger" length="4.50" width="1.80" height="1.50"/>
    <vehicle id="1_10" x="992.74" y="996.20" z="0.75" angle="169.37" speed="13.86" type="passenger" length="4.50" width="1.80" height="1.50"/>
    <vehicle id="1_11" x="1023.92" y="1010.13" z="0.75" angle="-117.34" speed="2.91" type="passenger" length="4.50" width="1.80" height="1.50"/>
    <vehicle id="1_2" x="973.90" y="995.44" z="0.75" angle="152.58" speed="11.34" type="passenger" length="4.50" width="1.80" height="1.50"/>
    <vehicle id="1_3" x="1026.04" y="997.51" z="0.75" angle="-103.42" speed="0.00" type="passenger" length="4.50" width="1.80" height="1.50"/>
    <vehicle id="1_4" x="992.87" y="982.43" z="0.75" angle="87.20" speed="0.00" type="passenger" length="4.50" width="1.80" height="1.50"/>
    <vehicle id="1_5" x="1029.90" y="1012.82" z="0.75" angle="-103.36" speed="0.00" type="passenger" length="4.50" width="1.80" height="1.50"/>
    <vehicle id="1_6" x="1016.69" y="1001.24" z="0.75" angle="-134.30" speed="0.18" type="passenger" length="4.50" width="1.80" height="1.50"/>
    <vehicle id="1_8" x="1008.85" y="976.37" z="0.75" angle="-60.22" speed="7.93" type="passenger" length="4.50" width="1.80" height="1.50"/>
    <vehicle id="1_9" x="946.95" y="1004.12" z="0.75" angle="169.65" speed="12.32" type="passenger" length="4.50" width="1.80" height="1.50"/>
  </timestep>
  <timestep time="0.30">
    <vehicle id="1_1" x="1028.29" y="1005.10" z="0.75" angle="-105.48" speed="0.00" type="passenger" length="4.50" width="1.80" height="1.50"/>
    <vehicle id="1_10" x="991.38" y="996.45" z="0.75" angle="169.42" speed="13.82" type="passenger" length="4.50" width="1.80" height="1.50"/>
    <vehicle id="1_11" x="1023.79" y="1009.87" z="0.75" angle="-117.23" speed="2.80" type="passenger" length="4.50" width="1.80" height="1.50"/>
    <vehicle id="1_2" x="972.88" y="995.94" z="0.75" angle="153.61" speed="11.58" type="passenger" length="4.50" width="1.80" height="1.50"/>
    <vehicle id="1_3" x="1026.04" y="997.51" z="0.75" angle="-103.42" speed="0.00" type="passenger" length="4.50" width="1.80" height="1.50"/>
    <vehicle id="1_4" x="992.87" y="982.43" z="0.75" angle="87.20" speed="0.00" type="passenger" length="4.50" width="1.80" height="1.50"/>
    <vehicle id="1_5" x="1029.90" y="1012.82" z="0.75" angle="-103.36" speed="0.00" type="passenger" length="4.50" width="1.80" height="1.50"/>
    <vehicle id="1_6" x="1016.68" y="1001.23" z="0.75" angle="-134.30" speed="0.18" type="passenger" length="4.50" width="1.80" height="1.50"/>
    <vehicle id="1_8" x="1009.19" y="975.66" z="0.75" angle="-62.51" speed="8.01" type="passenger" length="4.50" width="1.80" height="1.50"/>
    <vehicle id="1_9" x="945.73" y="1004.34" z="0.75" angle="169.65" speed="12.32" type="passenger" length="4.50" width="1.80" height="1.50"/>
  </timestep>
  <timestep time="0.40">
    <vehicle id="1_1" x="1028.29" y="1005.10" z="0.75" angle="-105.48" speed="0.00" type="passenger" length="4.50" width="1.80" height="1.50"/>
    <vehicle id="1_10" x="990.02" y="996.71" z="0.75" angle="169.48" speed="13.77" type="passenger" length="4.50" width="1.80" height="1.50"/>
    <vehicle id="1_11" x="1023.66" y="1009.62" z="0.75" angle="-117.17" speed="2.69" type="passenger" length="4.50" width="1.80" height="1.50"/>
    <vehicle id="1_2" x="971.83" y="996.43" z="0.75" angle="154.64" speed="11.82" type="passenger" length="4.50" width="1.80" height="1.50"/>
    <vehicle id="1_3" x="1026.04" y="997.51" z="0.75" angle="-103.42" speed="0.00" type="passenger" length="4.50" width="1.80" height="1.50"/>
    <vehicle id="1_4" x="992.87" y="982.43" z="0.75" angle="87.20" speed="0.00" type="passenger" length="4.50" width="1.80" height="1.50"/>
    <vehicle id="1_5" x="1029.90" y="1012.82" z="0.75" angle="-103.36" speed="0.00" type="passenger" length="4.50" width="1.80" height="1.50"/>
    <vehicle id="1_6" x="1016.67" y="1001.22" z="0.75" angle="-134.36" speed="0.19" type="passenger" length="4.50" width="1.80" height="1.50"/>
    <vehicle id="1_8" x="1009.50" y="974.92" z="0.75" angle="-64.74" speed="8.10" type="passenger" length="4.50" width="1.80" height="1.50"/>
    <vehicle id="1_9" x="944.52" y="1004.56" z="0.75" angle="169.71" speed="12.32" type="passenger" length="4.50" width="1.80" height="1.50"/>
  </timestep>
  <timestep time="0.50">
    <vehicle id="1_1" x="1028.29" y="1005.10" z="0.75" angle="-105.48" speed="0.00" type="passenger" length="4.50" width="1.80" height="1.50"/>
    <vehicle id="1_10" x="988.66" y="996.96" z="0.75" angle="169.54" speed="13.72" type="passenger" length="4.50" width="1.80" height="1.50"/>
    <vehicle id="1_11" x="1023.54" y="1009.38" z="0.75" angle="-117.11" speed="2.58" type="passenger" length="4.50" width="1.80" height="1.50"/>
    <vehicle id="1_2" x="970.75" y="996.92" z="0.75" angle="155.62" speed="12.05" type="passenger" length="4.50" width="1.80" height="1.50"/>
    <vehicle id="1_3" x="1026.04" y="997.51" z="0.75" angle="-103.42" speed="0.00" type="passenger" length="4.50" width="1.80" height="1.50"/>
    <vehicle id="1_4" x="992.87" y="982.43" z="0.75" angle="87.20" speed="0.00" type="passenger" length="4.50" width="1.80" height="1.50"/>
    <vehicle id="1_5" x="1029.90" y="1012.82" z="0.75" angle="-103.36" speed="0.00" type="passenger" length="4.50" width="1.80" height="1.50"/>
    <vehicle id="1_6" x="1016.65" y="1001.21" z="0.75" angle="-134.36" speed="0.20" type="passenger" length="4.50" width="1.80" height="1.50"/>
    <vehicle id="1_8" x="1009.79" y="974.16" z="0.75" angle="-66.86" speed="8.19" type="passenger" length="4.50" width="1.80" height="1.50"/>
  </timestep>
  <timestep time="0.60">
    <vehicle id="1_1" x="1028.29" y="1005.10" z="0.75" angle="-105.48" speed="0.00" type="passenger" length="4.50" width="1.80" height="1.50"/>
    <vehicle id="1_10" x="987.32" y="997.20" z="0.75" angle="169.60" speed="13.67" type="passenger" length="4.50" width="1.80" height="1.50"/>
    <vehicle id="1_11" x="1023.42" y="1009.15" z="0.75" angle="-117.11" speed="2.46" type="passenger" length="4.50" width="1.80" height="1.50"/>
    <vehicle id="1_2" x="969.65" y="997.40" z="0.75" angle="156.53" speed="12.28" type="passenger" length="4.50" width="1.80" height="1.50"/>
    <vehicle id="1_3" x="1026.04" y="997.51" z="0.75" angle="-103.42" speed="0.00" type="passenger" length="4.50" width="1.80" height="1.50"/>
    <vehicle id="1_4" x="992.87" y="982.43" z="0.75" angle="87.20" speed="0.00" type="passenger" length="4.50" width="1.80" height="1.50"/>
    <vehicle id="1_5" x="1029.90" y="1012.82" z="0.75" angle="-103.36" speed="0.00" type="passenger" length="4.50" width="1.80" height="1.50"/>
    <vehicle id="1_6" x="1016.64" y="1001.19" z="0.75" angle="-134.42" speed="0.21" type="passenger" length="4.50" width="1.80" height="1.50"/>
    <vehicle id="1_8" x="1010.06" y="973.39" z="0.75" angle="-68.93" speed="8.29" type="passenger" length="4.50" width="1.80" height="1.50"/>
  </timestep>
  <timestep time="0.70">
    <vehicle id="1_1" x="1028.29" y="1005.10" z="0.75" angle="-105.48" speed="0.00" type="passenger" length="4.50" width="1.80" height="1.50"/>
    <vehicle id="1_10" x="985.97" y="997.45" z="0.75" angle="169.65" speed="13.62" type="passenger" length="4.50" width="1.80" height="1.50"/>
    <vehicle id="1_11" x="1023.31" y="1008.93" z="0.75" angle="-117.06" speed="2.34" type="passenger" length="4.50" width="1.80" height="1.50"/>
    <vehicle id="1_2" x="968.51" y="997.87" z="0.75" angle="157.45" speed="12.49" type="passenger" length="4.50" width="1.80" height="1.50"/>
    <vehicle id="1_3" x="1026.04" y="997.51" z="0.75" angle="-103.42" speed="0.00" type="passenger" length="4.50" width="1.80" height="1.50"/>
    <vehicle id="1_4" x="992.87" y="982.43" z="0.75" angle="87.20" speed="0.00" type="passenger" length="4.50" width="1.80" height="1.50"/>
    <vehicle id="1_5" x="1029.90" y="1012.82" z="0.75" angle="-103.36" speed="0.00" type="passenger" length="4.50" width="1.80" height="1.50"/>
    <vehicle id="1_6" x="1016.62" y="1001.18" z="0.75" angle="-134.42" speed="0.21" type="passenger" length="4.50" width="1.80" height="1.50"/>
    <vehicle id="1_8" x="1010.30" y="972.60" z="0.75" angle="-70.82" speed="8.39" type="passenger" length="4.50" width="1.80" height="1.50"/>
  </timestep>
  <timestep time="0.80">
    <vehicle id="1_1" x="1028.29" y="1005.10" z="0.75" angle="-105.48" speed="0.00" type="passenger" length="4.50" width="1.80" height="1.50"/>
    <vehicle id="1_10" x="984.63" y="997.69" z="0.75" angle="169.71" speed="13.57" type="passenger" length="4.50" width="1.80" height="1.50"/>
    <vehicle id="1_11" x="1023.20" y="1008.72" z="0.75" angle="-117.11" speed="2.21" type="passenger" length="4.50" width="1.80" height="1.50"/>
    <vehicle id="1_2" x="967.35" y="998.33" z="0.75" angle="158.25" speed="12.69" type="passenger" length="4.50" width="1.80" height="1.50"/>
    <vehicle id="1_3" x="1026.04" y="997.51" z="0.75" angle="-103.42" speed="0.00" type="passenger" length="4.50" width="1.80" height="1.50"/>
    <vehicle id="1_4" x="992.87" y="982.43" z="0.75" angle="87.20" speed="0.00" type="passenger" length="4.50" width="1.80" height="1.50"/>
    <vehicle id="1_5" x="1029.90" y="1012.82" z="0.75" angle="-103.36" speed="0.00" type="passenger" length="4.50" width="1.80" height="1.50"/>
    <vehicle id="1_6" x="1016.61" y="1001.16" z="0.75" angle="-134.47" speed="0.21" type="passenger" length="4.50" width="1.80" height="1.50"/>
    <vehicle id="1_8" x="1010.53" y="971.79" z="0.75" angle="-72.65" speed="8.49" type="passenger" length="4.50" width="1.80" height="1.50"/>
  </timestep>
  <timestep time="0.90">
    <vehicle id="1_1" x="1028.29" y="1005.10" z="0.75" angle="-105.48" speed="0.00" type="passenger" length="4.50" width="1.80" height="1.50"/>
    <vehicle id="1_10" x="983.29" y="997.93" z="0.75" angle="169.77" speed="13.52" type="passenger" length="4.50" width="1.80" height="1.50"/>
    <vehicle id="1_11" x="1023.10" y="1008.53" z="0.75" angle="-117.11" speed="2.08" type="passenger" length="4.50" width="1.80" height="1.50"/>
    <vehicle id="1_2" x="966.17" y="998.78" z="0.75" angle="159.05" speed="12.89" type="passenger" length="4.50" width="1.80" height="1.50"/>
    <vehicle id="1_3" x="1026.04" y="997.51" z="0.75" angle="-103.42" speed="0.00" type="passenger" length="4.50" width="1.80" height="1.50"/>
    <vehicle id="1_4" x="992.87" y="982.43" z="0.75" angle="87.20" speed="0.00" type="passenger" length="4.50" width="1.80" height="1.50"/>
    <vehicle id="1_5" x="1029.90" y="1012.82" z="0.75" angle="-103.36" speed="0.00" type="passenger" length="4.50" width="1.80" height="1.50"/>
    <vehicle id="1_6" x="1016.59" y="1001.15" z="0.75" angle="-134.47" speed="0.21" type="passenger" length="4.50" width="1.80" height="1.50"/>
    <vehicle id="1_8" x="1010.74" y="970.97" z="0.75" angle="-74.31" speed="8.58" type="passenger" length="4.50" width="1.80" height="1.50"/>
  </timestep>
  <timestep time="1.00">
    <vehicle id="1_1" x="1028.29" y="1005.10" z="0.75" angle="-105.48" speed="0.00" type="passenger" length="4.50" width="1.80" height="1.50"/>
    <vehicle id="1_10" x="981.96" y="998.17" z="0.75" angle="169.77" speed="13.48" type="passenger" length="4.50" width="1.80" height="1.50"/>
    <vehicle id="1_11" x="1023.01" y="1008.34" z="0.75" angle="-117.17" speed="1.95" type="passenger" length="4.50" width="1.80" height="1.50"/>
    <vehicle id="1_2" x="964.96" y="999.23" z="0.75" angle="159.80" speed="13.08" type="passenger" length="4.50" width="1.80" height="1.50"/>
    <vehicle id="1_3" x="1026.04" y="997.51" z="0.75" angle="-103.42" speed="0.00" type="passenger" length="4.50" width="1.80" height="1.50"/>
    <vehicle id="1_4" x="992.87" y="982.43" z="0.75" angle="87.20" speed="0.00" type="passenger" length="4.50" width="1.80" height="1.50"/>
    <vehicle id="1_5" x="1029.90" y="1012.82" z="0.75" angle="-103.36" speed="0.00" type="passenger" length="4.50" width="1.80" height="1.50"/>
    <vehicle id="1_6" x="1016.58" y="1001.13" z="0.75" angle="-134.53" speed="0.21" type="passenger" length="4.50" width="1.80" height="1.50"/>
    <vehicle id="1_8" x="1010.93" y="970.13" z="0.75" angle="-75.80" speed="8.66" type="passenger" length="4.50" width="1.80" height="1.50"/>
  </timestep>
  <timestep time="1.10">
    <vehicle id="1_1" x="1028.29" y="1005.10" z="0.75" angle="-105.48" speed="0.00" type="passenger" length="4.50" width="1.80" height="1.50"/>
    <vehicle id="1_10" x="980.64" y="998.41" z="0.75" angle="169.82" speed="13.43" type="passenger" length="4.50" width="1.80" height="1.50"/>
    <vehicle id="1_11" x="1022.91" y="1008.17" z="0.75" angle="-117.23" speed="1.81" type="passenger" length="4.50" width="1.80" height="1.50"/>
    <vehicle id="1_2" x="963.73" y="999.66" z="0.75" angle="160.54" speed="13.25" type="passenger" length="4.50" width="1.80" height="1.50"/>
    <vehicle id="1_3" x="1026.04" y="997.51" z="0.75" angle="-103.42" speed="0.00" type="passenger" length="4.50" width="1.80" height="1.50"/>
    <vehicle id="1_4" x="992.87" y="982.43" z="0.75" angle="87.20" speed="0.00" type="passenger" length="4.50" width="1.80" height="1.50"/>
    <vehicle id="1_5" x="1029.90" y="1012.82" z="0.75" angle="-103.36" speed="0.00" type="passenger" length="4.50" width="1.80" height="1.50"/>
    <vehicle id="1_6" x="1016.56" y="1001.12" z="0.75" angle="-134.53" speed="0.20" type="passenger" length="4.50" width="1.80" height="1.50"/>
    <vehicle id="1_8" x="1011.10" y="969.28" z="0.75" angle="-77.18" speed="8.73" type="passenger" length="4.50" width="1.80" height="1.50"/>
  </timestep>
  <timestep time="1.20">
    <vehicle id="1_1" x="1028.29" y="1005.10" z="0.75" angle="-105.48" speed="0.00" type="passenger" length="4.50" width="1.80" height="1.50"/>
    <vehicle id="1_10" x="979.32" y="998.65" z="0.75" angle="169.88" speed="13.38" type="passenger" length="4.50" width="1.80" height="1.50"/>
    <vehicle id="1_11" x="1022.83" y="1008.01" z="0.75" angle="-117.28" speed="1.68" type="passenger" length="4.50" width="1.80" height="1.50"/>
    <vehicle id="1_2" x="962.47" y="1000.09" z="0.75" angle="161.23" speed="13.41" type="passenger" length="4.50" width="1.80" height="1.50"/>
    <vehicle id="1_3" x="1026.04" y="997.51" z="0.75" angle="-103.42" speed="0.00" type="passenger" length="4.50" width="1.80" height="1.50"/>
    <vehicle id="1_4" x="992.87" y="982.43" z="0.75" angle="87.20" speed="0.00" type="passenger" length="4.50" width="1.80" height="1.50"/>
    <vehicle id="1_5" x="1029.90" y="1012.82" z="0.75" angle="-103.36" speed="0.00" type="passenger" length="4.50" width="1.80" height="1.50"/>
    <vehicle id="1_6" x="1016.55" y="1001.10" z="0.75" angle="-134.53" speed="0.20" type="passenger" length="4.50" width="1.80" height="1.50"/>
    <vehicle id="1_8" x="1011.26" y="968.42" z="0.75" angle="-78.50" speed="8.79" type="passenger" length="4.50" width="1.80" height="1.50"/>
  </timestep>
  <timestep time="1.30">
    <vehicle id="1_1" x="1028.29" y="1005.10" z="0.75" angle="-105.48" speed="0.00" type="passenger" length="4.50" width="1.80" height="1.50"/>
    <vehicle id="1_10" x="978.00" y="998.88" z="0.75" angle="169.88" speed="13.33" type="passenger" length="4.50" width="1.80" height="1.50"/>
    <vehicle id="1_11" x="1022.75" y="1007.86" z="0.75" angle="-117.40" speed="1.54" type="passenger" length="4.50" width="1.80" height="1.50"/>
    <vehicle id="1_2" x="961.20" y="1000.51" z="0.75" angle="161.86" speed="13.56" type="passenger" length="4.50" width="1.80" height="1.50"/>
    <vehicle id="1_3" x="1026.04" y="997.51" z="0.75" angle="-103.42" speed="0.00" type="passenger" length="4.50" width="1.80" height="1.50"/>
    <vehicle id="1_4" x="992.87" y="982.43" z="0.75" angle="87.20" speed="0.00" type="passenger" length="4.50" width="1.80" height="1.50"/>
    <vehicle id="1_5" x="1029.90" y="1012.82" z="0.75" angle="-103.36" speed="0.00" type="passenger" length="4.50" width="1.80" height="1.50"/>
    <vehicle id="1_6" x="1016.53" y="1001.09" z="0.75" angle="-134.59" speed="0.19" type="passenger" length="4.50" width="1.80" height="1.50"/>
    <vehicle id="1_8" x="1011.40" y="967.55" z="0.75" angle="-79.64" speed="8.83" type="passenger" length="4.50" width="1.80" height="1.50"/>
  </timestep>
  <timestep time="1.40">
    <vehicle id="1_1" x="1028.29" y="1005.10" z="0.75" angle="-105.48" speed="0.00" type="passenger" length="4.50" width="1.80" height="1.50"/>
    <vehicle id="1_10" x="976.69" y="999.12" z="0.75" angle="169.94" speed="13.28" type="passenger" length="4.50" width="1.80" height="1.50"/>
    <vehicle id="1_11" x="1022.68" y="1007.72" z="0.75" angle="-117.51" speed="1.41" type="passenger" length="4.50" width="1.80" height="1.50"/>
    <vehicle id="1_12" x="1035.37" y="988.26" z="0.75" angle="170.40" speed="12.28" type="passenger" length="4.50" width="1.80" height="1.50"/>
    <vehicle id="1_2" x="959.90" y="1000.91" z="0.75" angle="162.49" speed="13.69" type="passenger" length="4.50" width="1.80" height="1.50"/>
    <vehicle id="1_3" x="1026.04" y="997.51" z="0.75" angle="-103.42" speed="0.00" type="passenger" length="4.50" width="1.80" height="1.50"/>
    <vehicle id="1_4" x="992.87" y="982.43" z="0.75" angle="87.20" speed="0.00" type="passenger" length="4.50" width="1.80" height="1.50"/>
    <vehicle id="1_5" x="1029.90" y="1012.82" z="0.75" angle="-103.36" speed="0.00" type="passenger" length="4.50" width="1.80" height="1.50"/>
    <vehicle id="1_6" x="1016.52" y="1001.08" z="0.75" angle="-134.59" speed="0.18" type="passenger" length="4.50" width="1.80" height="1.50"/>
    <vehicle id="1_8" x="1011.53" y="966.67" z="0.75" angle="-80.73" speed="8.87" type="passenger" length="4.50" width="1.80" height="1.50"/>
  </timestep>
  <timestep time="1.50">
    <vehicle id="1_1" x="1028.29" y="1005.10" z="0.75" angle="-105.48" speed="0.00" type="passenger" length="4.50" width="1.80" height="1.50"/>
    <vehicle id="1_10" x="975.38" y="999.35" z="0.75" angle="169.94" speed="13.23" type="passenger" length="4.50" width="1.80" height="1.50"/>
    <vehicle id="1_11" x="1022.61" y="1007.60" z="0.75" angle="-117.57" speed="1.28" type="passenger" length="4.50" width="1.80" height="1.50"/>
    <vehicle id="1_12" x="1034.16" y="988.47" z="0.75" angle="170.40" speed="12.30" type="passenger" length="4.50" width="1.80" height="1.50"/>
    <vehicle id="1_2" x="958.59" y="1001.31" z="0.75" angle="163.06" speed="13.82" type="passenger" length="4.50" width="1.80" height="1.50"/>
    <vehicle id="1_3" x="1026.04" y="997.51" z="0.75" angle="-103.42" speed="0.00" type="passenger" length="4.50" width="1.80" height="1.50"/>
    <vehicle id="1_4" x="992.87" y="982.43" z="0.75" angle="87.20" speed="0.00" type="passenger" length="4.50" width="1.80" height="1.50"/>
    <vehicle id="1_5" x="1029.90" y="1012.82" z="0.75" angle="-103.36" speed="0.00" type="passenger" length="4.50" width="1.80" height="1.50"/>
    <vehicle id="1_6" x="1016.51" y="1001.07" z="0.75" angle="-134.65" speed="0.16" type="passenger" length="4.50" width="1.80" height="1.50"/>
    <vehicle id="1_8" x="1011.64" y="965.79" z="0.75" angle="-81.76" speed="8.88" type="passenger" length="4.50" width="1.80" height="1.50"/>
  </timestep>
  <timestep time="1.60">
    <vehicle id="1_1" x="1028.29" y="1005.10" z="0.75" angle="-105.48" speed="0.00" type="passenger" length="4.50" width="1.80" height="1.50"/>
    <vehicle id="1_10" x="974.08" y="999.58" z="0.75" angle="169.94" speed="13.18" type="passenger" length="4.50" width="1.80" height="1.50"/>
    <vehicle id="1_11" x="1022.55" y="1007.49" z="0.75" angle="-117.69" speed="1.15" type="passenger" length="4.50" width="1.80" height="1.50"/>
    <vehicle id="1_12" x="1032.94" y="988.68" z="0.75" angle="170.34" speed="12.31" type="passenger" length="4.50" width="1.80" height="1.50"/>
    <vehicle id="1_2" x="957.27" y="1001.71" z="0.75" angle="163.64" speed="13.92" type="passenger" length="4.50" width="1.80" height="1.50"/>
    <vehicle id="1_3" x="1026.04" y="997.51" z="0.75" angle="-103.42" speed="0.00" type="passenger" length="4.50" width="1.80" height="1.50"/>
    <vehicle id="1_4" x="992.87" y="982.43" z="0.75" angle="87.20" speed="0.00" type="passenger" length="4.50" width="1.80" height="1.50"/>
    <vehicle id="1_5" x="1029.90" y="1012.82" z="0.75" angle="-103.36" speed="0.00" type="passenger" length="4.50" width="1.80" height="1.50"/>
    <vehicle id="1_6" x="1016.50" y="1001.05" z="0.75" angle="-134.65" speed="0.15" type="passenger" length="4.50" width="1.80" height="1.50"/>
    <vehicle id="1_8" x="1011.74" y="964.91" z="0.75" angle="-82.79" speed="8.89" type="passenger" length="4.50" width="1.80" height="1.50"/>
  </timestep>
  <timestep time="1.70">
    <vehicle id="1_1" x="1028.29" y="1005.10" z="0.75" angle="-105.48" speed="0.00" type="passenger" length="4.50" width="1.80" height="1.50"/>
    <vehicle id="1_10" x="972.78" y="999.81" z="0.75" angle="169.94" speed="13.13" type="passenger" length="4.50" width="1.80" height="1.50"/>
    <vehicle id="1_11" x="1022.49" y="1007.39" z="0.75" angle="-117.80" speed="1.04" type="passenger" length="4.50" width="1.80" height="1.50"/>
    <vehicle id="1_12" x="1031.73" y="988.88" z="0.75" angle="170.28" speed="12.33" type="passenger" length="4.50" width="1.80" height="1.50"/>
    <vehicle id="1_2" x="955.93" y="1002.09" z="0.75" angle="164.15" speed="14.02" type="passenger" length="4.50" width="1.80" height="1.50"/>
    <vehicle id="1_3" x="1026.04" y="997.51" z="0.75" angle="-103.42" speed="0.00" type="passenger" length="4.50" width="1.80" height="1.50"/>
    <vehicle id="1_4" x="992.87" y="982.43" z="0.75" angle="87.20" speed="0.00" type="passenger" length="4.50" width="1.80" height="1.50"/>
    <vehicle id="1_5" x="1029.90" y="1012.82" z="0.75" angle="-103.36" speed="0.00" type="passenger" length="4.50" width="1.80" height="1.50"/>
    <vehicle id="1_6" x="1016.49" y="1001.04" z="0.75" angle="-134.70" speed="0.15" type="passenger" length="4.50" width="1.80" height="1.50"/>
    <vehicle id="1_8" x="1011.83" y="964.02" z="0.75" angle="-83.77" speed="8.89" type="passenger" length="4.50" width="1.80" height="1.50"/>
  </timestep>
  <timestep time="1.80">
    <vehicle id="1_1" x="1028.29" y="1005.10" z="0.75" angle="-105.48" speed="0.00" type="passenger" length="4.50" width="1.80" height="1.50"/>
    <vehicle id="1_10" x="971.49" y="1000.04" z="0.75" angle="169.94" speed="13.08" type="passenger" length="4.50" width="1.80" height="1.50"/>
    <vehicle id="1_11" x="1022.44" y="1007.30" z="0.75" angle="-117.97" speed="0.93" type="passenger" length="4.50" width="1.80" height="1.50"/>
    <vehicle id="1_12" x="1030.52" y="989.09" z="0.75" angle="170.23" speed="12.34" type="passenger" length="4.50" width="1.80" height="1.50"/>
    <vehicle id="1_2" x="954.58" y="1002.46" z="0.75" angle="164.61" speed="14.10" type="passenger" length="4.50" width="1.80" height="1.50"/>
    <vehicle id="1_3" x="1026.04" y="997.51" z="0.75" angle="-103.42" speed="0.00" type="passenger" length="4.50" width="1.80" height="1.50"/>
    <vehicle id="1_4" x="992.87" y="982.43" z="0.75" angle="87.20" speed="0.00" type="passenger" length="4.50" width="1.80" height="1.50"/>
    <vehicle id="1_5" x="1029.90" y="1012.82" z="0.75" angle="-103.36" speed="0.00" type="passenger" length="4.50" width="1.80" height="1.50"/>
    <vehicle id="1_6" x="1016.48" y="1001.03" z="0.75" angle="-134.70" speed="0.14" type="passenger" length="4.50" width="1.80" height="1.50"/>
  </timestep>
  <timestep time="1.90">
    <vehicle id="1_1" x="1028.29" y="1005.10" z="0.75" angle="-105.48" speed="0.00" type="passenger" length="4.50" width="1.80" height="1.50"/>
    <vehicle id="1_10" x="970.20" y="1000.27" z="0.75" angle="169.94" speed="13.03" type="passenger" length="4.50" width="1.80" height="1.50"/>
    <vehicle id="1_11" x="1022.39" y="1007.22" z="0.75" angle="-118.03" speed="0.84" type="passenger" length="4.50" width="1.80" height="1.50"/>
    <vehicle id="1_12" x="1029.30" y="989.30" z="0.75" angle="170.23" speed="12.35" type="passenger" length="4.50" width="1.80" height="1.50"/>
    <vehicle id="1_2" x="953.22" y="1002.82" z="0.75" angle="165.07" speed="14.16" type="passenger" length="4.50" width="1.80" height="1.50"/>
    <vehicle id="1_3" x="1026.04" y="997.51" z="0.75" angle="-103.36" speed="0.00" type="passenger" length="4.50" width="1.80" height="1.50"/>
    <vehicle id="1_4" x="992.87" y="982.43" z="0.75" angle="87.20" speed="0.00" type="passenger" length="4.50" width="1.80" height="1.50"/>
    <vehicle id="1_5" x="1029.90" y="1012.82" z="0.75" angle="-103.36" speed="0.00" type="passenger" length="4.50" width="1.80" height="1.50"/>
    <vehicle id="1_6" x="1016.46" y="1001.02" z="0.75" angle="-134.70" speed="0.14" type="passenger" length="4.50" width="1.80" height="1.50"/>
  </timestep>
  <timestep time="2.00">
    <vehicle id="1_1" x="1028.29" y="1005.10" z="0.75" angle="-105.48" speed="0.00" type="passenger" length="4.50" width="1.80" height="1.50"/>
    <vehicle id="1_10" x="968.92" y="1000.50" z="0.75" angle="169.94" speed="12.98" type="passenger" length="4.50" width="1.80" height="1.50"/>
    <vehicle id="1_11" x="1022.35" y="1007.14" z="0.75" angle="-118.14" speed="0.76" type="passenger" length="4.50" width="1.80" height="1.50"/>
    <vehicle id="1_12" x="1028.08" y="989.51" z="0.75" angle="170.17" speed="12.36" type="passenger" length="4.50" width="1.80" height="1.50"/>
    <vehicle id="1_2" x="951.84" y="1003.18" z="0.75" angle="165.53" speed="14.22" type="passenger" length="4.50" width="1.80" height="1.50"/>
    <vehicle id="1_3" x="1026.04" y="997.51" z="0.75" angle="-103.36" speed="0.00" type="passenger" length="4.50" width="1.80" height="1.50"/>
    <vehicle id="1_4" x="992.87" y="982.43" z="0.75" angle="87.20" speed="0.00" type="passenger" length="4.50" width="1.80" height="1.50"/>
    <vehicle id="1_5" x="1029.90" y="1012.82" z="0.75" angle="-103.36" speed="0.00" type="passenger" length="4.50" width="1.80" height="1.50"/>
    <vehicle id="1_6" x="1016.45" y="1001.01" z="0.75" angle="-134.76" speed="0.14" type="passenger" length="4.50" width="1.80" height="1.50"/>
  </timestep>
  <timestep time="2.10">
    <vehicle id="1_1" x="1028.29" y="1005.10" z="0.75" angle="-105.48" speed="0.00" type="passenger" length="4.50" width="1.80" height="1.50"/>
    <vehicle id="1_10" x="967.64" y="1000.72" z="0.75" angle="169.94" speed="12.92" type="passenger" length="4.50" width="1.80" height="1.50"/>
    <vehicle id="1_11" x="1022.31" y="1007.08" z="0.75" angle="-118.26" speed="0.69" type="passenger" length="4.50" width="1.80" height="1.50"/>
    <vehicle id="1_12" x="1026.87" y="989.73" z="0.75" angle="170.11" speed="12.37" type="passenger" length="4.50" width="1.80" height="1.50"/>