<?xml version="1.0" ?>
<fcd-export>
  <timestep time="0.00">
    <vehicle id="3_1" x="1027.74" y="998.47" z="0.75" angle="-95.45" speed="0.00" type="passenger" length="4.50" width="1.80" height="1.50"/>
    <vehicle id="3_10" x="995.19" y="976.47" z="0.75" angle="75.06" speed="0.79" type="passenger" length="4.50" width="1.80" height="1.50"/>
    <vehicle id="3_11" x="987.11" y="1000.06" z="0.75" angle="170.28" speed="12.79" type="passenger" length="4.50" width="1.80" height="1.50"/>
    <vehicle id="3_12" x="953.35" y="995.46" z="0.75" angle="-13.12" speed="10.49" type="passenger" length="4.50" width="1.80" height="1.50"/>
    <vehicle id="3_13" x="993.25" y="967.38" z="0.75" angle="87.09" speed="2.35" type="passenger" length="4.50" width="1.80" height="1.50"/>
    <vehicle id="3_14" x="1034.10" y="987.64" z="0.75" angle="169.65" speed="3.89" type="passenger" length="4.50" width="1.80" height="1.50"/>
    <vehicle id="3_15" x="1032.28" y="991.59" z="0.75" angle="168.39" speed="14.56" type="passenger" length="4.50" width="1.80" height="1.50"/>
    <vehicle id="3_2" x="993.13" y="1008.04" z="0.75" angle="-105.20" speed="0.00" type="passenger" length="4.50" width="1.80" height="1.50"/>
    <vehicle id="3_3" x="995.25" y="1014.99" z="0.75" angle="-114.48" speed="0.00" type="passenger" length="4.50" width="1.80" height="1.50"/>
    <vehicle id="3_5" x="954.81" y="1005.82" z="0.75" angle="169.19" speed="9.46" type="passenger" length="4.50" width="1.80" height="1.50"/>
    <vehicle id="3_6" x="1008.08" y="998.47" z="0.75" angle="-171.26" speed="6.10" type="passenger" length="4.50" width="1.80" height="1.50"/>
    <vehicle id="3_7" x="998.29" y="1022.22" z="0.75" angle="-120.84" speed="0.00" type="passenger" length="4.50" width="1.80" height="1.50"/>
    <vehicle id="3_8" x="1011.42" y="972.41" z="0.75" angle="-61.19" speed="5.70" type="passenger" length="4.50" width="1.80" height="1.50"/>
    <vehicle id="3_9" x="1023.30" y="986.87" z="0.75" angle="-154.58" speed="4.21" type="passenger" length="4.50" width="1.80" height="1.50"/>
  </timestep>
  <timestep time="0.10">
    <vehicle id="3_1" x="1027.74" y="998.47" z="0.75" angle="-95.40" speed="0.00" type="passenger" length="4.50" width="1.80" height="1.50"/>
    <vehicle id="3_10" x="995.22" y="976.55" z="0.75" angle="74.89" speed="0.71" type="passenger" length="4.50" width="1.80" height="1.50"/>
    <vehicle id="3_11" x="985.85" y="1000.28" z="0.75" angle="170.28" speed="12.75" type="passenger" length="4.50" width="1.80" height="1.50"/>
    <vehicle id="3_12" x="954.37" y="995.22" z="0.75" angle="-13.18" speed="10.42" type="passenger" length="4.50" width="1.80" height="1.50"/>
    <vehicle id="3_13" x="993.28" y="967.61" z="0.75" angle="86.69" speed="2.12" type="passenger" length="4.50" width="1.80" height="1.50"/>
    <vehicle id="3_14" x="1033.71" y="987.72" z="0.75" angle="169.71" speed="4.24" type="passenger" length="4.50" width="1.80" height="1.50"/>
    <vehicle id="3_15" x="1030.86" y="991.88" z="0.75" angle="168.45" speed="14.53" type="passenger" length="4.50" width="1.80" height="1.50"/>
    <vehicle id="3_2" x="993.13" y="1008.04" z="0.75" angle="-105.20" speed="0.00" type="passenger" length="4.50" width="1.80" height="1.50"/>
    <vehicle id="3_3" x="995.25" y="1014.99" z="0.75" angle="-114.48" speed="0.00" type="passenger" length="4.50" width="1.80" height="1.50"/>
    <vehicle id="3_5" x="953.88" y="1006.00" z="0.75" angle="169.14" speed="9.45" type="passenger" length="4.50" width="1.80" height="1.50"/>
    <vehicle id="3_6" x="1007.48" y="998.42" z="0.75" angle="-172.80" speed="6.36" type="passenger" length="4.50" width="1.80" height="1.50"/>
    <vehicle id="3_7" x="998.29" y="1022.22" z="0.75" angle="-120.84" speed="0.00" type="passenger" length="4.50" width="1.80" height="1.50"/>
    <vehicle id="3_8" x="1011.66" y="971.89" z="0.75" angle="-62.51" speed="5.77" type="passenger" length="4.50" width="1.80" height="1.50"/>
    <vehicle id="3_9" x="1022.95" y="986.63" z="0.75" angle="-152.18" speed="4.32" type="passenger" length="4.50" width="1.80" height="1.50"/>
  </timestep>
  <timestep time="0.20">
    <vehicle id="3_1" x="1027.74" y="998.47" z="0.75" angle="-95.40" speed="0.00" type="passenger" length="4.50" width="1.80" height="1.50"/>
    <vehicle id="3_10" x="995.24" y="976.62" z="0.75" angle="74.71" speed="0.64" type="passenger" length="4.50" width="1.80" height="1.50"/>
    <vehicle id="3_11" x="984.59" y="1000.49" z="0.75" angle="170.28" speed="12.71" type="passenger" length="4.50" width="1.80" height="1.50"/>
    <vehicle id="3_12" x="955.38" y="994.98" z="0.75" angle="-13.18" speed="10.35" type="passenger" length="4.50" width="1.80" height="1.50"/>
    <vehicle id="3_13" x="993.30" y="967.82" z="0.75" angle="86.29" speed="1.89" type="passenger" length="4.50" width="1.80" height="1.50"/>
    <vehicle id="3_14" x="1033.30" y="987.79" z="0.75" angle="169.71" speed="4.58" type="passenger" length="4.50" width="1.80" height="1.50"/>
    <vehicle id="3_15" x="1029.43" y="992.17" z="0.75" angle="168.45" speed="14.49" type="passenger" length="4.50" width="1.80" height="1.50"/>
    <vehicle id="3_2" x="993.13" y="1008.04" z="0.75" angle="-105.20" speed="0.00" type="passenger" length="4.50" width="1.80" height="1.50"/>
    <vehicle id="3_3" x="995.25" y="1014.99" z="0.75" angle="-114.48" speed="0.00" type="passenger" length="4.50" width="1.80" height="1.50"/>
    <vehicle id="3_5" x="952.95" y="1006.18" z="0.75" angle="169.08" speed="9.44" type="passenger" length="4.50" width="1.80" height="1.50"/>
    <vehicle id="3_6" x="1006.84" y="998.38" z="0.75" angle="-174.29" speed="6.61" type="passenger" length="4.50" width="1.80" height="1.50"/>
    <vehicle id="3_7" x="998.29" y="1022.22" z="0.75" angle="-120.84" speed="0.00" type="passenger" length="4.50" width="1.80" height="1.50"/>
    <vehicle id="3_8" x="1011.89" y="971.36" z="0.75" angle="-63.88" speed="5.85" type="passenger" length="4.50" width="1.80" height="1.50"/>
    <vehicle id="3_9" x="1022.60" y="986.38" z="0.75" angle="-149.71" speed="4.44" type="passenger" length="4.50" width="1.80" height="1.50"/>
  </timestep>
  <timestep time="0.30">
    <vehicle id="3_1" x="1027.74" y="998.47" z="0.75" angle="-95.40" speed="0.00" type="passenger" length="4.50" width="1.80" height="1.50"/>
    <vehicle id="3_10" x="995.26" y="976.68" z="0.75" angle="74.60" speed="0.57" type="passenger" length="4.50" width="1.80" height="1.50"/>
    <vehicle id="3_11" x="983.34" y="1000.71" z="0.75" angle="170.23" speed="12.67" type="passenger" length="4.50" width="1.80" height="1.50"/>
    <vehicle id="3_12" x="956.39" y="994.74" z="0.75" angle="-13.24" speed="10.27" type="passenger" length="4.50" width="1.80" height="1.50"/>
    <vehicle id="3_13" x="993.32" y="968.01" z="0.75" angle="85.89" speed="1.66" type="passenger" length="4.50" width="1.80" height="1.50"/>
    <vehicle id="3_14" x="1032.85" y="987.88" z="0.75" angle="169.71" speed="4.92" type="passenger" length="4.50" width="1.80" height="1.50"/>
    <vehicle id="3_15" x="1028.01" y="992.46" z="0.75" angle="168.51" speed="14.42" type="passenger" length="4.50" width="1.80" height="1.50"/>
    <vehicle id="3_2" x="993.13" y="1008.04" z="0.75" angle="-105.20" speed="0.00" type="passenger" length="4.50" width="1.80" height="1.50"/>
    <vehicle id="3_3" x="995.25" y="1014.99" z="0.75" angle="-114.48" speed="0.00" type="passenger" length="4.50" width="1.80" height="1.50"/>
    <vehicle id="3_5" x="952.02" y="1006.36" z="0.75" angle="169.08" speed="9.44" type="passenger" length="4.50" width="1.80" height="1.50"/>
    <vehicle id="3_6" x="1006.18" y="998.35" z="0.75" angle="-175.67" speed="6.85" type="passenger" length="4.50" width="1.80" height="1.50"/>
    <vehicle id="3_7" x="998.29" y="1022.22" z="0.75" angle="-120.84" speed="0.00" type="passenger" length="4.50" width="1.80" height="1.50"/>
    <vehicle id="3_8" x="1012.12" y="970.82" z="0.75" angle="-65.20" speed="5.94" type="passenger" length="4.50" width="1.80" height="1.50"/>
    <vehicle id="3_9" x="1022.25" y="986.10" z="0.75" angle="-147.31" speed="4.56" type="passenger" length="4.50" width="1.80" height="1.50"/>
  </timestep>
  <timestep time="0.40">
    <vehicle id="3_1" x="1027.74" y="998.47" z="0.75" angle="-95.40" speed="0.00" type="passenger" length="4.50" width="1.80" height="1.50"/>
    <vehicle id="3_10" x="995.27" y="976.73" z="0.75" angle="74.48" speed="0.50" type="passenger" length="4.50" width="1.80" height="1.50"/>
    <vehicle id="3_11" x="982.09" y="1000.92" z="0.75" angle="170.23" speed="12.63" type="passenger" length="4.50" width="1.80" height="1.50"/>
    <vehicle id="3_12" x="957.39" y="994.50" z="0.75" angle="-13.35" speed="10.19" type="passenger" length="4.50" width="1.80" height="1.50"/>
    <vehicle id="3_13" x="993.35" y="968.18" z="0.75" angle="85.54" speed="1.44" type="passenger" length="4.50" width="1.80" height="1.50"/>
    <vehicle id="3_14" x="1032.36" y="987.96" z="0.75" angle="169.77" speed="5.24" type="passenger" length="4.50" width="1.80" height="1.50"/>
    <vehicle id="3_15" x="1026.60" y="992.74" z="0.75" angle="168.56" speed="14.34" type="passenger" length="4.50" width="1.80" height="1.50"/>
    <vehicle id="3_2" x="993.13" y="1008.04" z="0.75" angle="-105.20" speed="0.00" type="passenger" length="4.50" width="1.80" height="1.50"/>
    <vehicle id="3_3" x="995.25" y="1014.99" z="0.75" angle="-114.48" speed="0.00" type="passenger" length="4.50" width="1.80" height="1.50"/>
    <vehicle id="3_5" x="951.10" y="1006.54" z="0.75" angle="169.08" speed="9.45" type="passenger" length="4.50" width="1.80" height="1.50"/>
    <vehicle id="3_6" x="1005.49" y="998.33" z="0.75" angle="-176.93" speed="7.10" type="passenger" length="4.50" width="1.80" height="1.50"/>
    <vehicle id="3_7" x="998.29" y="1022.22" z="0.75" angle="-120.84" speed="0.00" type="passenger" length="4.50" width="1.80" height="1.50"/>
    <vehicle id="3_8" x="1012.33" y="970.26" z="0.75" angle="-66.58" speed="6.04" type="passenger" length="4.50" width="1.80" height="1.50"/>
    <vehicle id="3_9" x="1021.90" y="985.81" z="0.75" angle="-144.84" speed="4.69" type="passenger" length="4.50" width="1.80" height="1.50"/>
  </timestep>
  <timestep time="0.50">
    <vehicle id="3_1" x="1027.74" y="998.47" z="0.75" angle="-95.40" speed="0.00" type="passenger" length="4.50" width="1.80" height="1.50"/>
    <vehicle id="3_10" x="995.29" y="976.78" z="0.75" angle="74.37" speed="0.44" type="passenger" length="4.50" width="1.80" height="1.50"/>
    <vehicle id="3_11" x="980.85" y="1001.14" z="0.75" angle="170.17" speed="12.59" type="passenger" length="4.50" width="1.80" height="1.50"/>
    <vehicle id="3_12" x="958.38" y="994.27" z="0.75" angle="-13.41" speed="10.11" type="passenger" length="4.50" width="1.80" height="1.50"/>
    <vehicle id="3_13" x="993.37" y="968.32" z="0.75" angle="85.26" speed="1.23" type="passenger" length="4.50" width="1.80" height="1.50"/>
    <vehicle id="3_14" x="1031.85" y="988.06" z="0.75" angle="169.77" speed="5.54" type="passenger" length="4.50" width="1.80" height="1.50"/>
    <vehicle id="3_15" x="1025.19" y="993.03" z="0.75" angle="168.62" speed="14.25" type="passenger" length="4.50" width="1.80" height="1.50"/>
    <vehicle id="3_2" x="993.13" y="1008.04" z="0.75" angle="-105.20" speed="0.00" type="passenger" length="4.50" width="1.80" height="1.50"/>
    <vehicle id="3_3" x="995.25" y="1014.99" z="0.75" angle="-114.48" speed="0.00" type="passenger" length="4.50" width="1.80" height="1.50"/>
    <vehicle id="3_5" x="950.17" y="1006.72" z="0.75" angle="169.14" speed="9.47" type="passenger" length="4.50" width="1.80" height="1.50"/>
    <vehicle id="3_6" x="1004.78" y="998.32" z="0.75" angle="-178.13" speed="7.33" type="passenger" length="4.50" width="1.80" height="1.50"/>
    <vehicle id="3_7" x="998.29" y="1022.22" z="0.75" angle="-120.84" speed="0.00" type="passenger" length="4.50" width="1.80" height="1.50"/>
    <vehicle id="3_8" x="1012.53" y="969.69" z="0.75" angle="-67.90" speed="6.14" type="passenger" length="4.50" width="1.80" height="1.50"/>
    <vehicle id="3_9" x="1021.56" y="985.49" z="0.75" angle="-142.44" speed="4.82" type="passenger" length="4.50" width="1.80" height="1.50"/>
  </timestep>
  <timestep time="0.60">
    <vehicle id="3_1" x="1027.74" y="998.47" z="0.75" angle="-95.45" speed="0.00" type="passenger" length="4.50" width="1.80" height="1.50"/>
    <vehicle id="3_10" x="995.31" y="976.82" z="0.75" angle="74.26" speed="0.38" type="passenger" length="4.50" width="1.80" height="1.50"/>
    <vehicle id="3_11" x="979.61" y="1001.36" z="0.75" angle="170.11" speed="12.56" type="passenger" length="4.50" width="1.80" height="1.50"/>
    <vehicle id="3_12" x="959.36" y="994.03" z="0.75" angle="-13.52" speed="10.02" type="passenger" length="4.50" width="1.80" height="1.50"/>
    <vehicle id="3_13" x="993.38" y="968.44" z="0.75" angle="84.97" speed="1.03" type="passenger" length="4.50" width="1.80" height="1.50"/>
    <vehicle id="3_14" x="1031.30" y="988.15" z="0.75" angle="169.82" speed="5.82" type="passenger" length="4.50" width="1.80" height="1.50"/>
    <vehicle id="3_15" x="1023.80" y="993.31" z="0.75" angle="168.68" speed="14.14" type="passenger" length="4.50" width="1.80" height="1.50"/>
    <vehicle id="3_2" x="993.13" y="1008.04" z="0.75" angle="-105.20" speed="0.00" type="passenger" length="4.50" width="1.80" height="1.50"/>
    <vehicle id="3_3" x="995.25" y="1014.99" z="0.75" angle="-114.48" speed="0.00" type="passenger" length="4.50" width="1.80" height="1.50"/>
    <vehicle id="3_5" x="949.24" y="1006.89" z="0.75" angle="169.19" speed="9.49" type="passenger" length="4.50" width="1.80" height="1.50"/>
    <vehicle id="3_6" x="1004.04" y="998.33" z="0.75" angle="-179.16" speed="7.57" type="passenger" length="4.50" width="1.80" height="1.50"/>
    <vehicle id="3_7" x="998.29" y="1022.22" z="0.75" angle="-120.84" speed="0.00" type="passenger" length="4.50" width="1.80" height="1.50"/>
    <vehicle id="3_8" x="1012.73" y="969.11" z="0.75" angle="-69.21" speed="6.24" type="passenger" length="4.50" width="1.80" height="1.50"/>
    <vehicle id="3_9" x="1021.22" y="985.14" z="0.75" angle="-140.03" speed="4.96" type="passenger" length="4.50" width="1.80" height="1.50"/>
  </timestep>
  <timestep time="0.70">
    <vehicle id="3_1" x="1027.74" y="998.45" z="0.75" angle="-95.45" speed="0.19" type="passenger" length="4.50" width="1.80" height="1.50"/>
    <vehicle id="3_10" x="995.32" y="976.86" z="0.75" angle="74.14" speed="0.32" type="passenger" length="4.50" width="1.80" height="1.50"/>
    <vehicle id="3_11" x="978.37" y="1001.57" z="0.75" angle="170.05" speed="12.53" type="passenger" length="4.50" width="1.80" height="1.50"/>
    <vehicle id="3_12" x="960.34" y="993.79" z="0.75" angle="-13.69" speed="9.93" type="passenger" length="4.50" width="1.80" height="1.50"/>
    <vehicle id="3_13" x="993.40" y="968.54" z="0.75" angle="84.74" speed="0.85" type="passenger" length="4.50" width="1.80" height="1.50"/>
    <vehicle id="3_14" x="1030.73" y="988.26" z="0.75" angle="169.82" speed="6.07" type="passenger" length="4.50" width="1.80" height="1.50"/>
    <vehicle id="3_15" x="1022.41" y="993.58" z="0.75" angle="168.74" speed="14.02" type="passenger" length="4.50" width="1.80" height="1.50"/>
    <vehicle id="3_2" x="993.13" y="1008.04" z="0.75" angle="-105.20" speed="0.00" type="passenger" length="4.50" width="1.80" height="1.50"/>
    <vehicle id="3_3" x="995.25" y="1014.99" z="0.75" angle="-114.48" speed="0.00" type="passenger" length="4.50" width="1.80" height="1.50"/>
    <vehicle id="3_5" x="948.31" y="1007.07" z="0.75" angle="169.31" speed="9.52" type="passenger" length="4.50" width="1.80" height="1.50"/>
    <vehicle id="3_6" x="1003.29" y="998.34" z="0.75" angle="179.85" speed="7.79" type="passenger" length="4.50" width="1.80" height="1.50"/>
    <vehicle id="3_7" x="998.29" y="1022.22" z="0.75" angle="-120.84" speed="0.00" type="passenger" length="4.50" width="1.80" height="1.50"/>
    <vehicle id="3_8" x="1012.91" y="968.52" z="0.75" angle="-70.47" speed="6.34" type="passenger" length="4.50" width="1.80" height="1.50"/>
    <vehicle id="3_9" x="1020.88" y="984.78" z="0.75" angle="-137.68" speed="5.10" type="passenger" length="4.50" width="1.80" height="1.50"/>
  </timestep>
  <timestep time="0.80">
    <vehicle id="3_1" x="1027.73" y="998.43" z="0.75" angle="-95.45" speed="0.26" type="passenger" length="4.50" width="1.80" height="1.50"/>
    <vehicle id="3_10" x="995.33" y="976.89" z="0.75" angle="74.08" speed="0.26" type="passenger" length="4.50" width="1.80" height="1.50"/>
    <vehicle id="3_11" x="977.13" y="1001.79" z="0.75" angle="170.00" speed="12.51" type="passenger" length="4.50" width="1.80" height="1.50"/>
    <vehicle id="3_12" x="961.30" y="993.55" z="0.75" angle="-13.87" speed="9.84" type="passenger" length="4.50" width="1.80" height="1.50"/>
    <vehicle id="3_13" x="993.41" y="968.63" z="0.75" angle="84.57" speed="0.68" type="passenger" length="4.50" width="1.80" height="1.50"/>
    <vehicle id="3_14" x="1030.13" y="988.36" z="0.75" angle="169.82" speed="6.30" type="passenger" length="4.50" width="1.80" height="1.50"/>
    <vehicle id="3_15" x="1021.03" y="993.86" z="0.75" angle="168.85" speed="13.88" type="passenger" length="4.50" width="1.80" height="1.50"/>
    <vehicle id="3_2" x="993.13" y="1008.04" z="0.75" angle="-105.20" speed="0.00" type="passenger" length="4.50" width="1.80" height="1.50"/>
    <vehicle id="3_3" x="995.25" y="1014.99" z="0.75" angle="-114.48" speed="0.00" type="passenger" length="4.50" width="1.80" height="1.50"/>
    <vehicle id="3_5" x="947.37" y="1007.24" z="0.75" angle="169.42" speed="9.55" type="passenger" length="4.50" width="1.80" height="1.50"/>
    <vehicle id="3_6" x="1002.51" y="998.37" z="0.75" angle="178.93" speed="8.01" type="passenger" length="4.50" width="1.80" height="1.50"/>
    <vehicle id="3_7" x="998.29" y="1022.22" z="0.75" angle="-120.84" speed="0.00" type="passenger" length="4.50" width="1.80" height="1.50"/>
    <vehicle id="3_8" x="1013.09" y="967.91" z="0.75" angle="-71.73" speed="6.44" type="passenger" length="4.50" width="1.80" height="1.50"/>
    <vehicle id="3_9" x="1020.55" y="984.39" z="0.75" angle="-135.33" speed="5.25" type="passenger" length="4.50" width="1.80" height="1.50"/>
  </timestep>
  <timestep time="0.90">
    <vehicle id="3_1" x="1027.73" y="998.40" z="0.75" angle="-95.45" speed="0.34" type="passenger" length="4.50" width="1.80" height="1.50"/>
    <vehicle id="3_10" x="995.34" y="976.91" z="0.75" angle="74.03" speed="0.21" type="passenger" length="4.50" width="1.80" height="1.50"/>
    <vehicle id="3_11" x="975.90" y="1002.01" z="0.75" angle="169.94" speed="12.49" type="passenger" length="4.50" width="1.80" height="1.50"/>
    <vehicle id="3_12" x="962.25" y="993.31" z="0.75" angle="-14.09" speed="9.74" type="passenger" length="4.50" width="1.80" height="1.50"/>
    <vehicle id="3_13" x="993.42" y="968.70" z="0.75" angle="84.40" speed="0.53" type="passenger" length="4.50" width="1.80" height="1.50"/>
    <vehicle id="3_14" x="1029.51" y="988.47" z="0.75" angle="169.88" speed="6.51" type="passenger" length="4.50" width="1.80" height="1.50"/>
    <vehicle id="3_15" x="1019.67" y="994.12" z="0.75" angle="168.91" speed="13.74" type="passenger" length="4.50" width="1.80" height="1.50"/>
    <vehicle id="3_2" x="993.13" y="1008.04" z="0.75" angle="-105.20" speed="0.00" type="passenger" length="4.50" width="1.80" height="1.50"/>
    <vehicle id="3_3" x="995.25" y="1014.99" z="0.75" angle="-114.48" speed="0.00" type="passenger" length="4.50" width="1.80" height="1.50"/>
    <vehicle id="3_5" x="946.43" y="1007.41" z="0.75" angle="169.54" speed="9.59" type="passenger" length="4.50" width="1.80" height="1.50"/>
    <vehicle id="3_6" x="1001.71" y="998.40" z="0.75" angle="178.13" speed="8.23" type="passenger" length="4.50" width="1.80" height="1.50"/>
    <vehicle id="3_7" x="998.29" y="1022.22" z="0.75" angle="-120.84" speed="0.00" type="passenger" length="4.50" width="1.80" height="1.50"/>
    <vehicle id="3_8" x="1013.25" y="967.28" z="0.75" angle="-72.94" speed="6.53" type="passenger" length="4.50" width="1.80" height="1.50"/>
    <vehicle id="3_9" x="1020.22" y="983.98" z="0.75" angle="-133.04" speed="5.41" type="passenger" length="4.50" width="1.80" height="1.50"/>
  </timestep>
  <timestep time="1.00">
    <vehicle id="3_1" x="1027.73" y="998.37" z="0.75" angle="-95.34" speed="0.42" type="passenger" length="4.50" width="1.80" height="1.50"/>
    <vehicle id="3_10" x="995.35" y="976.93" z="0.75" angle="73.97" speed="0.16" type="passenger" length="4.50" width="1.80" height="1.50"/>
    <vehicle id="3_11" x="974.67" y="1002.23" z="0.75" angle="169.88" speed="12.47" type="passenger" length="4.50" width="1.80" height="1.50"/>
    <vehicle id="3_12" x="963.20" y="993.07" z="0.75" angle="-14.32" speed="9.63" type="passenger" length="4.50" width="1.80" height="1.50"/>
    <vehicle id="3_13" x="993.43" y="968.75" z="0.75" angle="84.22" speed="0.40" type="passenger" length="4.50" width="1.80" height="1.50"/>
    <vehicle id="3_14" x="1028.87" y="988.59" z="0.75" angle="169.88" speed="6.70" type="passenger" length="4.50" width="1.80" height="1.50"/>
    <vehicle id="3_15" x="1018.32" y="994.38" z="0.75" angle="169.02" speed="13.59" type="passenger" length="4.50" width="1.80" height="1.50"/>
    <vehicle id="3_2" x="993.13" y="1008.04" z="0.75" angle="-105.20" speed="0.00" type="passenger" length="4.50" width="1.80" height="1.50"/>
    <vehicle id="3_3" x="995.25" y="1014.99" z="0.75" angle="-114.48" speed="0.00" type="passenger" length="4.50" width="1.80" height="1.50"/>
    <vehicle id="3_5" x="945.49" y="1007.59" z="0.75" angle="169.71" speed="9.63" type="passenger" length="4.50" width="1.80" height="1.50"/>
    <vehicle id="3_6" x="1000.88" y="998.45" z="0.75" angle="177.39" speed="8.43" type="passenger" length="4.50" width="1.80" height="1.50"/>
    <vehicle id="3_7" x="998.29" y="1022.22" z="0.75" angle="-120.84" speed="0.00" type="passenger" length="4.50" width="1.80" height="1.50"/>
    <vehicle id="3_8" x="1013.41" y="966.65" z="0.75" angle="-74.08" speed="6.62" type="passenger" length="4.50" width="1.80" height="1.50"/>
    <vehicle id="3_9" x="1019.89" y="983.55" z="0.75" angle="-130.75" speed="5.57" type="passenger" length="4.50" width="1.80" height="1.50"/>
  </timestep>
  <timestep time="1.10">
    <vehicle id="3_1" x="1027.73" y="998.33" z="0.75" angle="-95.23" speed="0.49" type="passenger" length="4.50" width="1.80" height="1.50"/>
    <vehicle id="3_10" x="995.36" y="976.96" z="0.75" angle="73.91" speed="0.00" type="passenger" length="4.50" width="1.80" height="1.50"/>
    <vehicle id="3_11" x="973.45" y="1002.45" z="0.75" angle="169.82" speed="12.46" type="passenger" length="4.50" width="1.80" height="1.50"/>
    <vehicle id="3_12" x="964.13" y="992.82" z="0.75" angle="-14.67" speed="9.52" type="passenger" length="4.50" width="1.80" height="1.50"/>
    <vehicle id="3_13" x="993.44" y="968.79" z="0.75" angle="84.11" speed="0.29" type="passenger" length="4.50" width="1.80" height="1.50"/>
    <vehicle id="3_14" x="1028.21" y="988.71" z="0.75" angle="169.88" speed="6.86" type="passenger" length="4.50" width="1.80" height="1.50"/>
    <vehicle id="3_15" x="1016.99" y="994.64" z="0.75" angle="169.08" speed="13.43" type="passenger" length="4.50" width="1.80" height="1.50"/>
    <vehicle id="3_2" x="993.13" y="1008.04" z="0.75" angle="-105.20" speed="0.00" type="passenger" length="4.50" width="1.80" height="1.50"/>
    <vehicle id="3_3" x="995.25" y="1014.99" z="0.75" angle="-114.48" speed="0.00" type="passenger" length="4.50" width="1.80" height="1.50"/>
    <vehicle id="3_5" x="944.54" y="1007.75" z="0.75" angle="169.94" speed="9.68" type="passenger" length="4.50" width="1.80" height="1.50"/>
    <vehicle id="3_6" x="1000.04" y="998.51" z="0.75" angle="176.70" speed="8.64" type="passenger" length="4.50" width="1.80" height="1.50"/>
    <vehicle id="3_7" x="998.29" y="1022.22" z="0.75" angle="-120.84" speed="0.00" type="passenger" length="4.50" width="1.80" height="1.50"/>
    <vehicle id="3_8" x="1013.56" y="966.01" z="0.75" angle="-75.23" speed="6.69" type="passenger" length="4.50" width="1.80" height="1.50"/>
    <vehicle id="3_9" x="1019.58" y="983.09" z="0.75" angle="-128.57" speed="5.73" type="passenger" length="4.50" width="1.80" height="1.50"/>
  </timestep>
  <timestep time="1.20">
    <vehicle id="3_1" x="1027.73" y="998.28" z="0.75" angle="-95.00" speed="0.58" type="passenger" length="4.50" width="1.80" height="1.50"/>
    <vehicle id="3_10" x="995.36" y="976.96" z="0.75" angle="73.85" speed="0.00" type="passenger" length="4.50" width="1.80" height="1.50"/>
    <vehicle id="3_11" x="972.22" y="1002.67" z="0.75" angle="169.71" speed="12.45" type="passenger" length="4.50" width="1.80" height="1.50"/>
    <vehicle id="3_12" x="965.05" y="992.57" z="0.75" angle="-15.01" speed="9.41" type="passenger" length="4.50" width="1.80" height="1.50"/>
    <vehicle id="3_13" x="993.45" y="968.82" z="0.75" angle="84.05" speed="0.20" type="passenger" length="4.50" width="1.80" height="1.50"/>
    <vehicle id="3_14" x="1027.53" y="988.83" z="0.75" angle="169.88" speed="7.01" type="passenger" length="4.50" width="1.80" height="1.50"/>
    <vehicle id="3_15" x="1015.67" y="994.89" z="0.75" angle="169.14" speed="13.27" type="passenger" length="4.50" width="1.80" height="1.50"/>
    <vehicle id="3_2" x="993.13" y="1008.04" z="0.75" angle="-105.20" speed="0.00" type="passenger" length="4.50" width="1.80" height="1.50"/>
    <vehicle id="3_3" x="995.25" y="1014.99" z="0.75" angle="-114.48" speed="0.00" type="passenger" length="4.50" width="1.80" height="1.50"/>
    <vehicle id="3_5" x="943.59" y="1007.91" z="0.75" angle="170.11" speed="9.72" type="passenger" length="4.50" width="1.80" height="1.50"/>
    <vehicle id="3_6" x="999.18" y="998.57" z="0.75" angle="176.07" speed="8.83" type="passenger" length="4.50" width="1.80" height="1.50"/>
    <vehicle id="3_7" x="998.29" y="1022.22" z="0.75" angle="-120.84" speed="0.00" type="passenger" length="4.50" width="1.80" height="1.50"/>
    <vehicle id="3_8" x="1013.70" y="965.35" z="0.75" angle="-76.26" speed="6.76" type="passenger" length="4.50" width="1.80" height="1.50"/>
    <vehicle id="3_9" x="1019.26" y="982.61" z="0.75" angle="-126.45" speed="5.90" type="passenger" length="4.50" width="1.80" height="1.50"/>
  </timestep>
  <timestep time="1.30">
    <vehicle id="3_1" x="1027.74" y="998.22" z="0.75" angle="-94.71" speed="0.68" type="passenger" length="4.50" width="1.80" height="1.50"/>
    <vehicle id="3_10" x="995.36" y="976.96" z="0.75" angle="73.85" speed="0.00" type="passenger" length="4.50" width="1.80" height="1.50"/>
    <vehicle id="3_11" x="970.99" y="1002.90" z="0.75" angle="169.65" speed="12.45" type="passenger" length="4.50" width="1.80" height="1.50"/>
    <vehicle id="3_12" x="965.95" y="992.32" z="0.75" angle="-15.47" speed="9.30" type="passenger" length="4.50" width="1.80" height="1.50"/>
    <vehicle id="3_13" x="993.45" y="968.84" z="0.75" angle="84.00" speed="0.12" type="passenger" length="4.50" width="1.80" height="1.50"/>
    <vehicle id="3_14" x="1026.84" y="988.95" z="0.75" angle="169.88" speed="7.15" type="passenger" length="4.50" width="1.80" height="1.50"/>
    <vehicle id="3_15" x="1014.37" y="995.14" z="0.75" angle="169.25" speed="13.10" type="passenger" length="4.50" width="1.80" height="1.50"/>
    <vehicle id="3_2" x="993.13" y="1008.04" z="0.75" angle="-105.20" speed="0.00" type="passenger" length="4.50" width="1.80" height="1.50"/>
    <vehicle id="3_3" x="995.25" y="1014.99" z="0.75" angle="-114.48" speed="0.00" type="passenger" length="4.50" width="1.80" height="1.50"/>
    <vehicle id="3_6" x="998.30" y="998.65" z="0.75" angle="175.50" speed="9.02" type="passenger" length="4.50" width="1.80" height="1.50"/>
    <vehicle id="3_7" x="998.29" y="1022.22" z="0.75" angle="-120.84" speed="0.00" type="passenger" length="4.50" width="1.80" height="1.50"/>
    <vehicle id="3_8" x="1013.83" y="964.69" z="0.75" angle="-77.29" speed="6.82" type="passenger" length="4.50" width="1.80" height="1.50"/>
    <vehicle id="3_9" x="1018.96" y="982.10" z="0.75" angle="-124.39" speed="6.08" type="passenger" length="4.50" width="1.80" height="1.50"/>
  </timestep>
  <timestep time="1.40">
    <vehicle id="3_1" x="1027.74" y="998.15" z="0.75" angle="-94.37" speed="0.81" type="passenger" length="4.50" width="1.80" height="1.50"/>
    <vehicle id="3_10" x="995.36" y="976.96" z="0.75" angle="73.85" speed="0.00" type="passenger" length="4.50" width="1.80" height="1.50"/>
    <vehicle id="3_11" x="969.77" y="1003.12" z="0.75" angle="169.54" speed="12.45" type="passenger" length="4.50" width="1.80" height="1.50"/>
    <vehicle id="3_12" x="966.85" y="992.06" z="0.75" angle="-15.93" speed="9.18" type="passenger" length="4.50" width="1.80" height="1.50"/>
    <vehicle id="3_13" x="993.45" y="968.86" z="0.75" angle="83.94" speed="0.00" type="passenger" length="4.50" width="1.80" height="1.50"/>
    <vehicle id="3_14" x="1026.14" y="989.08" z="0.75" angle="169.82" speed="7.26" type="passenger" length="4.50" width="1.80" height="1.50"/>
    <vehicle id="3_15" x="1013.08" y="995.39" z="0.75" angle="169.31" speed="12.92" type="passenger" length="4.50" width="1.80" height="1.50"/>
    <vehicle id="3_2" x="993.13" y="1008.04" z="0.75" angle="-105.20" speed="0.00" type="passenger" length="4.50" width="1.80" height="1.50"/>
    <vehicle id="3_3" x="995.25" y="1014.99" z="0.75" angle="-114.48" speed="0.00" type="passenger" length="4.50" width="1.80" height="1.50"/>
    <vehicle id="3_6" x="997.40" y="998.73" z="0.75" angle="174.92" speed="9.20" type="passenger" length="4.50" width="1.80" height="1.50"/>
    <vehicle id="3_7" x="998.29" y="1022.22" z="0.75" angle="-120.84" speed="0.00" type="passenger" length="4.50" width="1.80" height="1.50"/>