<?xml version="1.0" ?>
<fcd-export>
  <timestep time="0.00">
    <vehicle id="15_1" x="945.59" y="1004.04" z="0.75" angle="169.37" speed="4.69" type="passenger" length="4.50" width="1.80" height="1.50"/>
    <vehicle id="15_2" x="1005.86" y="996.70" z="0.75" angle="-174.29" speed="8.78" type="passenger" length="4.50" width="1.80" height="1.50"/>
    <vehicle id="15_3" x="1021.38" y="1006.07" z="0.75" angle="-121.01" speed="3.93" type="passenger" length="4.50" width="1.80" height="1.50"/>
    <vehicle id="15_4" x="949.45" y="999.67" z="0.75" angle="-10.31" speed="11.87" type="passenger" length="4.50" width="1.80" height="1.50"/>
    <vehicle id="15_5" x="1024.97" y="992.34" z="0.75" angle="172.35" speed="11.74" type="passenger" length="4.50" width="1.80" height="1.50"/>
  </timestep>
  <timestep time="0.10">
    <vehicle id="15_1" x="945.13" y="1004.13" z="0.75" angle="169.31" speed="4.76" type="passenger" length="4.50" width="1.80" height="1.50"/>
    <vehicle id="15_2" x="1004.98" y="996.65" z="0.75" angle="-175.73" speed="8.98" type="passenger" length="4.50" width="1.80" height="1.50"/>
    <vehicle id="15_3" x="1021.17" y="1005.74" z="0.75" angle="-121.58" speed="3.64" type="passenger" length="4.50" width="1.80" height="1.50"/>
    <vehicle id="15_4" x="950.62" y="999.46" z="0.75" angle="-10.31" speed="11.86" type="passenger" length="4.50" width="1.80" height="1.50"/>
    <vehicle id="15_5" x="1023.80" y="992.49" z="0.75" angle="172.35" speed="11.68" type="passenger" length="4.50" width="1.80" height="1.50"/>
  </timestep>
  <timestep time="0.20">
    <vehicle id="15_1" x="944.66" y="1004.22" z="0.75" angle="169.25" speed="4.82" type="passenger" length="4.50" width="1.80" height="1.50"/>
    <vehicle id="15_2" x="1004.09" y="996.61" z="0.75" angle="-177.10" speed="9.18" type="passenger" length="4.50" width="1.80" height="1.50"/>
    <vehicle id="15_3" x="1020.97" y="1005.43" z="0.75" angle="-122.15" speed="3.38" type="passenger" length="4.50" width="1.80" height="1.50"/>
    <vehicle id="15_4" x="951.79" y="999.24" z="0.75" angle="-10.31" speed="11.85" type="passenger" length="4.50" width="1.80" height="1.50"/>
    <vehicle id="15_5" x="1022.65" y="992.65" z="0.75" angle="172.29" speed="11.62" type="passenger" length="4.50" width="1.80" height="1.50"/>
  </timestep>
  <timestep time="0.30">
    <vehicle id="15_1" x="944.19" y="1004.31" z="0.75" angle="169.19" speed="4.86" type="passenger" length="4.50" width="1.80" height="1.50"/>
    <vehicle id="15_2" x="1003.17" y="996.59" z="0.75" angle="-178.30" speed="9.38" type="passenger" length="4.50" width="1.80" height="1.50"/>
    <vehicle id="15_3" x="1020.78" y="1005.15" z="0.75" angle="-122.73" speed="3.14" type="passenger" length="4.50" width="1.80" height="1.50"/>
    <vehicle id="15_4" x="952.95" y="999.03" z="0.75" angle="-10.37" speed="11.85" type="passenger" length="4.50" width="1.80" height="1.50"/>
    <vehicle id="15_5" x="1021.50" y="992.80" z="0.75" angle="172.29" speed="11.57" type="passenger" length="4.50" width="1.80" height="1.50"/>
  </timestep>
  <timestep time="0.40">
    <vehicle id="15_1" x="943.71" y="1004.41" z="0.75" angle="169.14" speed="4.88" type="passenger" length="4.50" width="1.80" height="1.50"/>
    <vehicle id="15_2" x="1002.23" y="996.59" z="0.75" angle="-179.39" speed="9.57" type="passenger" length="4.50" width="1.80" height="1.50"/>
    <vehicle id="15_3" x="1020.60" y="1004.89" z="0.75" angle="-123.24" speed="2.93" type="passenger" length="4.50" width="1.80" height="1.50"/>
    <vehicle id="15_4" x="954.12" y="998.82" z="0.75" angle="-10.37" speed="11.85" type="passenger" length="4.50" width="1.80" height="1.50"/>
    <vehicle id="15_5" x="1020.35" y="992.96" z="0.75" angle="172.23" speed="11.52" type="passenger" length="4.50" width="1.80" height="1.50"/>
  </timestep>
  <timestep time="0.50">
    <vehicle id="15_1" x="943.23" y="1004.50" z="0.75" angle="169.08" speed="4.89" type="passenger" length="4.50" width="1.80" height="1.50"/>
    <vehicle id="15_2" x="1001.27" y="996.60" z="0.75" angle="179.62" speed="9.76" type="passenger" length="4.50" width="1.80" height="1.50"/>
    <vehicle id="15_3" x="1020.43" y="1004.66" z="0.75" angle="-123.82" speed="2.76" type="passenger" length="4.50" width="1.80" height="1.50"/>
    <vehicle id="15_4" x="955.28" y="998.60" z="0.75" angle="-10.37" speed="11.86" type="passenger" length="4.50" width="1.80" height="1.50"/>
    <vehicle id="15_5" x="1019.21" y="993.12" z="0.75" angle="172.17" speed="11.47" type="passenger" length="4.50" width="1.80" height="1.50"/>
  </timestep>
  <timestep time="0.60">
    <vehicle id="15_1" x="942.75" y="1004.59" z="0.75" angle="169.02" speed="4.89" type="passenger" length="4.50" width="1.80" height="1.50"/>
    <vehicle id="15_2" x="1000.29" y="996.63" z="0.75" angle="178.71" speed="9.94" type="passenger" length="4.50" width="1.80" height="1.50"/>
    <vehicle id="15_3" x="1020.26" y="1004.43" z="0.75" angle="-124.45" speed="2.61" type="passenger" length="4.50" width="1.80" height="1.50"/>
    <vehicle id="15_4" x="956.45" y="998.39" z="0.75" angle="-10.43" speed="11.87" type="passenger" length="4.50" width="1.80" height="1.50"/>
    <vehicle id="15_5" x="1018.07" y="993.27" z="0.75" angle="172.17" speed="11.42" type="passenger" length="4.50" width="1.80" height="1.50"/>
  </timestep>
  <timestep time="0.70">
    <vehicle id="15_1" x="942.27" y="1004.69" z="0.75" angle="168.97" speed="4.87" type="passenger" length="4.50" width="1.80" height="1.50"/>
    <vehicle id="15_2" x="999.30" y="996.67" z="0.75" angle="177.96" speed="10.11" type="passenger" length="4.50" width="1.80" height="1.50"/>
    <vehicle id="15_3" x="1020.10" y="1004.23" z="0.75" angle="-125.02" speed="2.50" type="passenger" length="4.50" width="1.80" height="1.50"/>
    <vehicle id="15_4" x="957.62" y="998.17" z="0.75" angle="-10.43" speed="11.89" type="passenger" length="4.50" width="1.80" height="1.50"/>
    <vehicle id="15_5" x="1016.94" y="993.43" z="0.75" angle="172.12" speed="11.37" type="passenger" length="4.50" width="1.80" height="1.50"/>
  </timestep>
  <timestep time="0.80">
    <vehicle id="15_1" x="941.80" y="1004.78" z="0.75" angle="168.91" speed="4.84" type="passenger" length="4.50" width="1.80" height="1.50"/>
    <vehicle id="15_2" x="998.29" y="996.72" z="0.75" angle="177.22" speed="10.28" type="passenger" length="4.50" width="1.80" height="1.50"/>
    <vehicle id="15_3" x="1019.95" y="1004.03" z="0.75" angle="-125.65" speed="2.41" type="passenger" length="4.50" width="1.80" height="1.50"/>
    <vehicle id="15_4" x="958.79" y="997.96" z="0.75" angle="-10.43" speed="11.91" type="passenger" length="4.50" width="1.80" height="1.50"/>
    <vehicle id="15_5" x="1015.81" y="993.59" z="0.75" angle="172.06" speed="11.33" type="passenger" length="4.50" width="1.80" height="1.50"/>
  </timestep>
  <timestep time="0.90">
    <vehicle id="15_1" x="941.32" y="1004.88" z="0.75" angle="168.85" speed="4.79" type="passenger" length="4.50" width="1.80" height="1.50"/>
    <vehicle id="15_2" x="997.26" y="996.79" z="0.75" angle="176.59" speed="10.43" type="passenger" length="4.50" width="1.80" height="1.50"/>
    <vehicle id="15_3" x="1019.80" y="1003.85" z="0.75" angle="-126.28" speed="2.36" type="passenger" length="4.50" width="1.80" height="1.50"/>
    <vehicle id="15_4" x="959.96" y="997.74" z="0.75" angle="-10.37" speed="11.94" type="passenger" length="4.50" width="1.80" height="1.50"/>
    <vehicle id="15_5" x="1014.69" y="993.75" z="0.75" angle="172.00" speed="11.28" type="passenger" length="4.50" width="1.80" height="1.50"/>
  </timestep>
  <timestep time="1.00">
    <vehicle id="15_1" x="940.85" y="1004.97" z="0.75" angle="168.79" speed="4.74" type="passenger" length="4.50" width="1.80" height="1.50"/>
    <vehicle id="15_2" x="996.22" y="996.86" z="0.75" angle="175.96" speed="10.58" type="passenger" length="4.50" width="1.80" height="1.50"/>
    <vehicle id="15_3" x="1019.64" y="1003.66" z="0.75" angle="-126.97" speed="2.33" type="passenger" length="4.50" width="1.80" height="1.50"/>
    <vehicle id="15_4" x="961.13" y="997.53" z="0.75" angle="-10.37" speed="11.98" type="passenger" length="4.50" width="1.80" height="1.50"/>
    <vehicle id="15_5" x="1013.57" y="993.91" z="0.75" angle="171.94" speed="11.24" type="passenger" length="4.50" width="1.80" height="1.50"/>
  </timestep>
  <timestep time="1.10">
    <vehicle id="15_1" x="940.39" y="1005.06" z="0.75" angle="168.74" speed="4.67" type="passenger" length="4.50" width="1.80" height="1.50"/>
    <vehicle id="15_2" x="995.17" y="996.95" z="0.75" angle="175.44" speed="10.72" type="passenger" length="4.50" width="1.80" height="1.50"/>
    <vehicle id="15_3" x="1019.49" y="1003.49" z="0.75" angle="-127.71" speed="2.33" type="passenger" length="4.50" width="1.80" height="1.50"/>
    <vehicle id="15_4" x="962.31" y="997.32" z="0.75" angle="-10.31" speed="12.01" type="passenger" length="4.50" width="1.80" height="1.50"/>
    <vehicle id="15_5" x="1012.46" y="994.07" z="0.75" angle="171.89" speed="11.19" type="passenger" length="4.50" width="1.80" height="1.50"/>
  </timestep>
  <timestep time="1.20">
    <vehicle id="15_1" x="939.93" y="1005.16" z="0.75" angle="168.68" speed="4.60" type="passenger" length="4.50" width="1.80" height="1.50"/>
    <vehicle id="15_2" x="994.10" y="997.04" z="0.75" angle="174.92" speed="10.84" type="passenger" length="4.50" width="1.80" height="1.50"/>
    <vehicle id="15_3" x="1019.33" y="1003.32" z="0.75" angle="-128.46" speed="2.35" type="passenger" length="4.50" width="1.80" height="1.50"/>
    <vehicle id="15_4" x="963.49" y="997.10" z="0.75" angle="-10.31" speed="12.05" type="passenger" length="4.50" width="1.80" height="1.50"/>
    <vehicle id="15_5" x="1011.35" y="994.23" z="0.75" angle="171.83" speed="11.15" type="passenger" length="4.50" width="1.80" height="1.50"/>
    <vehicle id="15_6" x="1034.95" y="987.81" z="0.75" angle="169.31" speed="8.03" type="passenger" length="4.50" width="1.80" height="1.50"/>
  </timestep>
  <timestep time="1.30">
    <vehicle id="15_1" x="939.48" y="1005.25" z="0.75" angle="168.56" speed="4.53" type="passenger" length="4.50" width="1.80" height="1.50"/>
    <vehicle id="15_2" x="993.02" y="997.15" z="0.75" angle="174.47" speed="10.95" type="passenger" length="4.50" width="1.80" height="1.50"/>
    <vehicle id="15_3" x="1019.17" y="1003.14" z="0.75" angle="-129.26" speed="2.39" type="passenger" length="4.50" width="1.80" height="1.50"/>
    <vehicle id="15_4" x="964.68" y="996.89" z="0.75" angle="-10.26" speed="12.10" type="passenger" length="4.50" width="1.80" height="1.50"/>
    <vehicle id="15_5" x="1010.25" y="994.39" z="0.75" angle="171.77" speed="11.10" type="passenger" length="4.50" width="1.80" height="1.50"/>
    <vehicle id="15_6" x="1034.17" y="987.96" z="0.75" angle="169.31" speed="8.03" type="passenger" length="4.50" width="1.80" height="1.50"/>
  </timestep>
  <timestep time="1.40">
    <vehicle id="15_1" x="939.03" y="1005.34" z="0.75" angle="168.51" speed="4.45" type="passenger" length="4.50" width="1.80" height="1.50"/>
    <vehicle id="15_2" x="991.93" y="997.26" z="0.75" angle="174.06" speed="11.05" type="passenger" length="4.50" width="1.80" height="1.50"/>
    <vehicle id="15_3" x="1019.01" y="1002.97" z="0.75" angle="-130.12" speed="2.45" type="passenger" length="4.50" width="1.80" height="1.50"/>
    <vehicle id="15_4" x="965.87" y="996.67" z="0.75" angle="-10.20" speed="12.14" type="passenger" length="4.50" width="1.80" height="1.50"/>
    <vehicle id="15_5" x="1009.15" y="994.55" z="0.75" angle="171.72" speed="11.05" type="passenger" length="4.50" width="1.80" height="1.50"/>
    <vehicle id="15_6" x="1033.38" y="988.10" z="0.75" angle="169.37" speed="8.02" type="passenger" length="4.50" width="1.80" height="1.50"/>
  </timestep>
  <timestep time="1.50">
    <vehicle id="15_1" x="938.60" y="1005.43" z="0.75" angle="168.39" speed="4.38" type="passenger" length="4.50" width="1.80" height="1.50"/>
    <vehicle id="15_2" x="990.83" y="997.39" z="0.75" angle="173.66" speed="11.14" type="passenger" length="4.50" width="1.80" height="1.50"/>
    <vehicle id="15_3" x="1018.83" y="1002.80" z="0.75" angle="-131.04" speed="2.52" type="passenger" length="4.50" width="1.80" height="1.50"/>
    <vehicle id="15_4" x="967.07" y="996.46" z="0.75" angle="-10.14" speed="12.18" type="passenger" length="4.50" width="1.80" height="1.50"/>
    <vehicle id="15_5" x="1008.06" y="994.71" z="0.75" angle="171.66" speed="10.99" type="passenger" length="4.50" width="1.80" height="1.50"/>
    <vehicle id="15_6" x="1032.59" y="988.25" z="0.75" angle="169.37" speed="7.99" type="passenger" length="4.50" width="1.80" height="1.50"/>
  </timestep>
  <timestep time="1.60">
    <vehicle id="15_1" x="938.17" y="1005.52" z="0.75" angle="168.28" speed="4.31" type="passenger" length="4.50" width="1.80" height="1.50"/>
    <vehicle id="15_2" x="989.73" y="997.52" z="0.75" angle="173.32" speed="11.21" type="passenger" length="4.50" width="1.80" height="1.50"/>
    <vehicle id="15_3" x="1018.65" y="1002.62" z="0.75" angle="-132.01" speed="2.61" type="passenger" length="4.50" width="1.80" height="1.50"/>
    <vehicle id="15_4" x="968.26" y="996.24" z="0.75" angle="-10.14" speed="12.22" type="passenger" length="4.50" width="1.80" height="1.50"/>
    <vehicle id="15_5" x="1006.97" y="994.87" z="0.75" angle="171.60" speed="10.94" type="passenger" length="4.50" width="1.80" height="1.50"/>
    <vehicle id="15_6" x="1031.80" y="988.40" z="0.75" angle="169.42" speed="7.97" type="passenger" length="4.50" width="1.80" height="1.50"/>
  </timestep>
  <timestep time="1.70">
    <vehicle id="15_1" x="937.75" y="1005.61" z="0.75" angle="168.16" speed="4.24" type="passenger" length="4.50" width="1.80" height="1.50"/>
    <vehicle id="15_2" x="988.62" y="997.65" z="0.75" angle="172.98" speed="11.27" type="passenger" length="4.50" width="1.80" height="1.50"/>
    <vehicle id="15_3" x="1018.46" y="1002.44" z="0.75" angle="-133.04" speed="2.70" type="passenger" length="4.50" width="1.80" height="1.50"/>
    <vehicle id="15_4" x="969.47" y="996.03" z="0.75" angle="-10.08" speed="12.26" type="passenger" length="4.50" width="1.80" height="1.50"/>
    <vehicle id="15_5" x="1005.89" y="995.03" z="0.75" angle="171.60" speed="10.88" type="passenger" length="4.50" width="1.80" height="1.50"/>
    <vehicle id="15_6" x="1031.02" y="988.54" z="0.75" angle="169.48" speed="7.94" type="passenger" length="4.50" width="1.80" height="1.50"/>
  </timestep>
  <timestep time="1.80">
    <vehicle id="15_1" x="937.34" y="1005.70" z="0.75" angle="168.11" speed="4.18" type="passenger" length="4.50" width="1.80" height="1.50"/>
    <vehicle id="15_2" x="987.50" y="997.80" z="0.75" angle="172.63" speed="11.31" type="passenger" length="4.50" width="1.80" height="1.50"/>
    <vehicle id="15_3" x="1018.26" y="1002.26" z="0.75" angle="-134.19" speed="2.81" type="passenger" length="4.50" width="1.80" height="1.50"/>
    <vehicle id="15_4" x="970.68" y="995.82" z="0.75" angle="-10.03" speed="12.30" type="passenger" length="4.50" width="1.80" height="1.50"/>
    <vehicle id="15_5" x="1004.81" y="995.19" z="0.75" angle="171.54" speed="10.83" type="passenger" length="4.50" width="1.80" height="1.50"/>
    <vehicle id="15_6" x="1030.24" y="988.69" z="0.75" angle="169.48" speed="7.92" type="passenger" length="4.50" width="1.80" height="1.50"/>
  </timestep>
  <timestep time="1.90">
    <vehicle id="15_1" x="936.93" y="1005.79" z="0.75" angle="167.99" speed="4.13" type="passenger" length="4.50" width="1.80" height="1.50"/>
    <vehicle id="15_2" x="986.38" y="997.95" z="0.75" angle="172.35" speed="11.34" type="passenger" length="4.50" width="1.80" height="1.50"/>
    <vehicle id="15_3" x="1018.04" y="1002.08" z="0.75" angle="-135.45" speed="2.94" type="passenger" length="4.50" width="1.80" height="1.50"/>
    <vehicle id="15_4" x="971.89" y="995.60" z="0.75" angle="-10.03" speed="12.33" type="passenger" length="4.50" width="1.80" height="1.50"/>
    <vehicle id="15_5" x="1003.74" y="995.35" z="0.75" angle="171.54" speed="10.77" type="passenger" length="4.50" width="1.80" height="1.50"/>
    <vehicle id="15_6" x="1029.46" y="988.83" z="0.75" angle="169.54" speed="7.91" type="passenger" length="4.50" width="1.80" height="1.50"/>
  </timestep>
  <timestep time="2.00">
    <vehicle id="15_1" x="936.52" y="1005.88" z="0.75" angle="167.88" speed="4.09" type="passenger" length="4.50" width="1.80" height="1.50"/>
    <vehicle id="15_2" x="985.25" y="998.11" z="0.75" angle="172.12" speed="11.36" type="passenger" length="4.50" width="1.80" height="1.50"/>
    <vehicle id="15_3" x="1017.81" y="1001.89" z="0.75" angle="-136.77" speed="3.07" type="passenger" length="4.50" width="1.80" height="1.50"/>
    <vehicle id="15_4" x="973.10" y="995.39" z="0.75" angle="-9.97" speed="12.36" type="passenger" length="4.50" width="1.80" height="1.50"/>
    <vehicle id="15_5" x="1002.68" y="995.51" z="0.75" angle="171.54" speed="10.71" type="passenger" length="4.50" width="1.80" height="1.50"/>
    <vehicle id="15_6" x="1028.68" y="988.97" z="0.75" angle="169.60" speed="7.91" type="passenger" length="4.50" width="1.80" height="1.50"/>
  </timestep>
  <timestep time="2.10">
    <vehicle id="15_1" x="936.12" y="1005.97" z="0.75" angle="167.76" speed="4.06" type="passenger" length="4.50" width="1.80" height="1.50"/>
    <vehicle id="15_2" x="984.13" y="998.27" z="0.75" angle="171.89" speed="11.37" type="passenger" length="4.50" width="1.80" height="1.50"/>
    <vehicle id="15_3" x="1017.57" y="1001.71" z="0.75" angle="-138.20" speed="3.21" type="passenger" length="4.50" width="1.80" height="1.50"/>
    <vehicle id="15_4" x="974.32" y="995.18" z="0.75" angle="-9.97" speed="12.39" type="passenger" length="4.50" width="1.80" height="1.50"/>
    <vehicle id="15_5" x="1001.62" y="995.66" z="0.75" angle="171.49" speed="10.65" type="passenger" length="4.50" width="1.80" height="1.50"/>
    <vehicle id="15_6" x="1027.90" y="989.11" z="0.75" angle="169.65" speed="7.91" type="passenger" length="4.50" width="1.80" height="1.50"/>
  </timestep>
  <timestep time="2.20">
    <vehicle id="15_1" x="935.73" y="1006.06" z="0.75" angle="167.65" speed="4.04" type="passenger" length="4.50" width="1.80" height="1.50"/>
    <vehicle id="15_2" x="983.00" y="998.43" z="0.75" angle="171.66" speed="11.36" type="passenger" length="4.50" width="1.80" height="1.50"/>
    <vehicle id="15_3" x="1017.31" y="1001.52" z="0.75" angle="-139.74" speed="3.37" type="passenger" length="4.50" width="1.80" height="1.50"/>
    <vehicle id="15_4" x="975.54" y="994.96" z="0.75" angle="-9.91" speed="12.40" type="passenger" length="4.50" width="1.80" height="1.50"/>
    <vehicle id="15_5" x="1000.57" y="995.82" z="0.75" angle="171.49" speed="10.59" type="passenger" length="4.50" width="1.80" height="1.50"/>
    <vehicle id="15_6" x="1027.12" y="989.25" z="0.75" angle="169.71" speed="7.94" type="passenger" length="4.50" width="1.80" height="1.50"/>
  </timestep>
  <timestep time="2.30">
    <vehicle id="15_1" x="935.33" y="1006.14" z="0.75" angle="167.53" speed="4.03" type="passenger" length="4.50" width="1.80" height="1.50"/>
    <vehicle id="15_2" x="981.88" y="998.60" z="0.75" angle="171.49" speed="11.35" type="passenger" length="4.50" width="1.80" height="1.50"/>
    <vehicle id="15_3" x="1017.03" y="1001.33" z="0.75" angle="-141.41" speed="3.53" type="passenger" length="4.50" width="1.80" height="1.50"/>
    <vehicle id="15_4" x="976.76" y="994.75" z="0.75" angle="-9.91" speed="12.42" type="passenger" length="4.50" width="1.80" height="1.50"/>
    <vehicle id="15_5" x="999.52" y="995.98" z="0.75" angle="171.49" speed="10.54" type="passenger" length="4.50" width="1.80" height="1.50"/>
    <vehicle id="15_6" x="1026.34" y="989.39" z="0.75" angle="169.77" speed="7.97" type="passenger" length="4.50" width="1.80" height="1.50"/>
  </timestep>
  <timestep time="2.40">
    <vehicle id="15_1" x="934.94" y="1006.24" z="0.75" angle="167.42" speed="4.02" type="passenger" length="4.50" width="1.80" height="1.50"/>
    <vehicle id="15_2" x="980.76" y="998.77" z="0.75" angle="171.31" speed="11.32" type="passenger" length="4.50" width="1.80" height="1.50"/>
    <vehicle id="15_3" x="1016.73" y="1001.14" z="0.75" angle="-143.18" speed="3.71" type="passenger" length="4.50" width="1.80" height="1.50"/>
    <vehicle id="15_4" x="977.98" y="994.53" z="0.75" angle="-9.91" speed="12.42" type="passenger" length="4.50" width="1.80" height="1.50"/>
    <vehicle id="15_5" x="998.48" y="996.14" z="0.75" angle="171.43" speed="10.48" type="passenger" length="4.50" width="1.80" height="1.50"/>
    <vehicle id="15_6" x="1025.56" y="989.54" z="0.75" angle="169.77" speed="8.01" type="passenger" length="4.50" width="1.80" height="1.50"/>
  </timestep>
  <timestep time="2.50">
    <vehicle id="15_1" x="934.55" y="1006.33" z="0.75" angle="167.30" speed="4.02" type="passenger" length="4.50" width="1.80" height="1.50"/>
    <vehicle id="15_2" x="979.64" y="998.95" z="0.75" angle="171.20" speed="11.28" type="passenger" length="4.50" width="1.80" height="1.50"/>
    <vehicle id="15_3" x="1016.41" y="1000.95" z="0.75" angle="-145.07" speed="3.91" type="passenger" length="4.50" width="1.80" height="1.50"/>
    <vehicle id="15_4" x="979.21" y="994.32" z="0.75" angle="-9.97" speed="12.43" type="passenger" length="4.50" width="1.80" height="1.50"/>
    <vehicle id="15_5" x="997.44" y="996.29" z="0.75" angle="171.43" speed="10.43" type="passenger" length="4.50" width="1.80" height="1.50"/>
    <vehicle id="15_6" x="1024.77" y="989.68" z="0.75" angle="169.82" speed="8.06" type="passenger" length="4.50" width="1.80" height="1.50"/>
    <vehicle id="15_7" x="934.20" y="1001.08" z="0.75" angle="-13.12" speed="10.92" type="passenger" length="4.50" width="1.80" height="1.50"/>
  </timestep>
  <timestep time="2.60">
    <vehicle id="15_2" x="978.53" y="999.12" z="0.75" angle="171.09" speed="11.24" type="passenger" length="4.50" width="1.80" height="1.50"/>
    <vehicle id="15_3" x="1016.06" y="1000.76" z="0.75" angle="-147.02" speed="4.11" type="passenger" length="4.50" width="1.80" height="1.50"/>
    <vehicle id="15_4" x="980.43" y="994.10" z="0.75" angle="-9.97" speed="12.43" type="passenger" length="4.50" width="1.80" height="1.50"/>
    <vehicle id="15_5" x="996.41" y="996.45" z="0.75" angle="171.37" speed="10.39" type="passenger" length="4.50" width="1.80" height="1.50"/>
    <vehicle id="15_6" x="1023.98" y="989.82" z="0.75" angle="169.88" speed="8.11" type="passenger" length="4.50" width="1.80" height="1.50"/>
    <vehicle id="15_7" x="935.26" y="1000.83" z="0.75" angle="-13.12" speed="10.93" type="passenger" length="4.50" width="1.80" height="1.50"/>
  </timestep>
  <timestep time="2.70">
    <vehicle id="15_2" x="977.42" y="999.30" z="0.75" angle="170.97" speed="11.19" type="passenger" length="4.50" width="1.80" height="1.50"/>
    <vehicle id="15_3" x="1015.69" y="1000.58" z="0.75" angle="-149.08" speed="4.33" type="passenger" length="4.50" width="1.80" height="1.50"/>
    <vehicle id="15_4" x="981.66" y="993.89" z="0.75" angle="-9.97" speed="12.42" type="passenger" length="4.50" width="1.80" height="1.50"/>
    <vehicle id="15_5" x="995.38" y="996.61" z="0.75" angle="171.31" speed="10.35" type="passenger" length="4.50" width="1.80" height="1.50"/>
    <vehicle id="15_6" x="1023.18" y="989.96" z="0.75" angle="169.94" speed="8.16" type="passenger" length="4.50" width="1.80" height="1.50"/>
    <vehicle id="15_7" x="936.32" y="1000.59" z="0.75" angle="-13.06" speed="10.95" type="passenger" length="4.50" width="1.80" height="1.50"/>
  </timestep>
  <timestep time="2.80">
    <vehicle id="15_2" x="976.31" y="999.48" z="0.75" angle="170.86" speed="11.13" type="passenger" length="4.50" width="1.80" height="1.50"/>
    <vehicle id="15_3" x="1015.30" y="1000.40" z="0.75" angle="-151.26" speed="4.55" type="passenger" length="4.50" width="1.80" height="1.50"/>
    <vehicle id="15_4" x="982.88" y="993.67" z="0.75" angle="-10.03" speed="12.41" type="passenger" length="4.50" width="1.80" height="1.50"/>
    <vehicle id="15_5" x="994.36" y="996.76" z="0.75" angle="171.31" speed="10.31" type="passenger" length="4.50" width="1.80" height="1.50"/>
    <vehicle id="15_6" x="1022.38" y="990.10" z="0.75" angle="169.94" speed="8.21" type="passenger" length="4.50" width="1.80" height="1.50"/>
    <vehicle id="15_7" x="937.39" y="1000.34" z="0.75" angle="-13.06" speed="10.96" type="passenger" length="4.50" width="1.80" height="1.50"/>
  </timestep>
  <timestep time="2.90">
    <vehicle id="15_2" x="975.21" y="999.65" z="0.75" angle="170.80" speed="11.07" type="passenger" length="4.50" width="1.80" height="1.50"/>
    <vehicle id="15_3" x="1014.88" y="1000.22" z="0.75" angle="-153.50" speed="4.77" type="passenger" length="4.50" width="1.80" height="1.50"/>
    <vehicle id="15_4" x="984.10" y="993.46" z="0.75" angle="-10.03" speed="12.40" type="passenger" length="4.50" width="1.80" height="1.50"/>
    <vehicle id="15_5" x="993.34" y="996.92" z="0.75" angle="171.26" speed="10.28" type="passenger" length="4.50" width="1.80" height="1.50"/>
    <vehicle id="15_6" x="1021.57" y="990.24" z="0.75" angle="169.94" speed="8.26" type="passenger" length="4.50" width="1.80" height="1.50"/>
    <vehicle id="15_7" x="938.46" y="1000.09" z="0.75" angle="-13.01" speed="10.98" type="passenger" length="4.50" width="1.80" height="1.50"/>
  </timestep>
  <timestep time="3.00">
    <vehicle id="15_2" x="974.12" y="999.83" z="0.75" angle="170.74" speed="11.00" type="passenger" length="4.50" width="1.80" height="1.50"/>
    <vehicle id="15_3" x="1014.43" y="1000.06" z="0.75" angle="-155.79" speed="5.00" type="passenger" length="4.50" width="1.80" height="1.50"/>
    <vehicle id="15_4" x="985.32" y="993.24" z="0.75" angle="-10.08" speed="12.39" type="passenger" length="4.50" width="1.80" height="1.50"/>
    <vehicle id="15_5" x="992.32" y="997.08" z="0.75" angle="171.20" speed="10.25" type="passenger" length="4.50" width="1.80" height="1.50"/>
    <vehicle id="15_6" x="1020.75" y="990.39" z="0.75" angle="170.00" speed="8.30" type="passenger" length="4.50" width="1.80" height="1.50"/>
    <vehicle id="15_7" x="939.53" y="999.84" z="0.75" angle="-13.01" speed="10.99" type="passenger" length="4.50" width="1.80" height="1.50"/>
  </timestep>
  <timestep time="3.10">
    <vehicle id="15_2" x="973.03" y="1000.01" z="0.75" angle="170.68" speed="10.93" type="passenger" length="4.50" width="1.80" height="1.50"/>
    <vehicle id="15_3" x="1013.96" y="999.90" z="0.75" angle="-158.08" speed="5.23" type="passenger" length="4.50" width="1.80" height="1.50"/>
    <vehicle id="15_4" x="986.54" y="993.02" z="0.75" angle="-10.08" speed="12.38" type="passenger" length="4.50" width="1.80" height="1.50"/>
    <vehicle id="15_5" x="991.31" y="997.24" z="0.75" angle="171.20" speed="10.23" type="passenger" length="4.50" width="1.80" height="1.50"/>
    <vehicle id="15_6" x="1019.94" y="990.53" z="0.75" angle="170.00" speed="8.33" type="passenger" length="4.50" width="1.80" height="1.50"/>
    <vehicle id="15_7" x="940.60" y="999.60" z="0.75" angle="-12.95" speed="11.00" type="passenger" length="4.50" width="1.80" height="1.50"/>
  </timestep>
  <timestep time="3.20">
    <vehicle id="15_2" x="971.96" y="1000.19" z="0.75" angle="170.63" speed="10.86" type="passenger" length="4.50" width="1.80" height="1.50"/>
    <vehicle id="15_3" x="1013.45" y="999.76" z="0.75" angle="-160.37" speed="5.46" type="passenger" length="4.50" width="1.80" height="1.50"/>
    <vehicle id="15_4" x="987.76" y="992.80" z="0.75" angle="-10.14" speed="12.37" type="passenger" length="4.50" width="1.80" height="1.50"/>
    <vehicle id="15_5" x="990.30" y="997.39" z="0.75" angle="171.14" speed="10.21" type="passenger" length="4.50" width="1.80" height="1.50"/>
    <vehicle id="15_6" x="1019.12" y="990.68" z="0.75" angle="170.00" speed="8.36" type="passenger" length="4.50" width="1.80" height="1.50"/>
    <vehicle id="15_7" x="941.67" y="999.35" z="0.75" angle="-12.95" speed="11.02" type="passenger" length="4.50" width="1.80" height="1.50"/>
  </timestep>
  <timestep time="3.30">
    <vehicle id="15_2" x="970.88" y="1000.37" z="0.75" angle="170.57" speed="10.78" type="passenger" length="4.50" width="1.80" height="1.50"/>
    <vehicle id="15_3" x="1012.92" y="999.62" z="0.75" angle="-162.66" speed="5.68" type="passenger" length="4.50" width="1.80" height="1.50"/>
    <vehicle id="15_4" x="988.98" y="992.59" z="0.75" angle="-10.20" speed="12.36" type="passenger" length="4.50" width="1.80" height="1.50"/>
    <vehicle id="15_5" x="989.29" y="997.55" z="0.75" angle="171.09" speed="10.20" type="passenger" length="4.50" width="1.80" height="1.50"/>
    <vehicle id="15_6" x="1018.29" y="990.82" z="0.75" angle="170.00" speed="8.38" type="passenger" length="4.50" width="1.80" height="1.50"/>
    <vehicle id="15_7" x="942.75" y="999.10" z="0.75" angle="-12.95" speed="11.03" type="passenger" length="4.50" width="1.80" height="1.50"/>
  </timestep>
  <timestep time="3.40">
    <vehicle id="15_2" x="969.82" y="1000.54" z="0.75" angle="170.57" speed="10.71" type="passenger" length="4.50" width="1.80" height="1.50"/>
    <vehicle id="15_3" x="1012.37" y="999.51" z="0.75" angle="-164.90" speed="5.91" type="passenger" length="4.50" width="1.80" height="1.50"/>
    <vehicle id="15_4" x="990.19" y="992.37" z="0.75" angle="-10.20" speed="12.35" type="passenger" length="4.50" width="1.80" height="1.50"/>
    <vehicle id="15_5" x="988.28" y="997.71" z="0.75" angle="171.09" speed="10.19" type="passenger" length="4.50" width="1.80" height="1.50"/>
    <vehicle id="15_6" x="1017.47" y="990.97" z="0.75" angle="170.00" speed="8.39" type="passenger" length="4.50" width="1.80" height="1.50"/>
    <vehicle id="15_7" x="943.82" y="998.86" z="0.75" angle="-12.95" speed="11.03" type="passenger" length="4.50" width="1.80" height="1.50"/>
  </timestep>
  <timestep time="3.50">